 Entering Gaussian System, Link 0=/nopt/nrel/apps/gaussian/g16B/g16/g16
 Initial command:
 /nopt/nrel/apps/gaussian/g16B/g16/l1.exe "/scratch/ykim/gaussianScratch.542968/Gau-438351.inp" -scrdir="/scratch/ykim/gaussianScratch.542968/"
 Default is to use a total of  36 processors:
                               36 via shared-memory
                                1 via Linda
 Entering Link 1 = /nopt/nrel/apps/gaussian/g16B/g16/l1.exe PID=    438353.
  
 Copyright (c) 1988-2017, Gaussian, Inc.  All Rights Reserved.
  
 This is part of the Gaussian(R) 16 program.  It is based on
 the Gaussian(R) 09 system (copyright 2009, Gaussian, Inc.),
 the Gaussian(R) 03 system (copyright 2003, Gaussian, Inc.),
 the Gaussian(R) 98 system (copyright 1998, Gaussian, Inc.),
 the Gaussian(R) 94 system (copyright 1995, Gaussian, Inc.),
 the Gaussian 92(TM) system (copyright 1992, Gaussian, Inc.),
 the Gaussian 90(TM) system (copyright 1990, Gaussian, Inc.),
 the Gaussian 88(TM) system (copyright 1988, Gaussian, Inc.),
 the Gaussian 86(TM) system (copyright 1986, Carnegie Mellon
 University), and the Gaussian 82(TM) system (copyright 1983,
 Carnegie Mellon University). Gaussian is a federally registered
 trademark of Gaussian, Inc.
  
 This software contains proprietary and confidential information,
 including trade secrets, belonging to Gaussian, Inc.
  
 This software is provided under written license and may be
 used, copied, transmitted, or stored only in accord with that
 written license.
  
 The following legend is applicable only to US Government
 contracts under FAR:
  
                    RESTRICTED RIGHTS LEGEND
  
 Use, reproduction and disclosure by the US Government is
 subject to restrictions as set forth in subparagraphs (a)
 and (c) of the Commercial Computer Software - Restricted
 Rights clause in FAR 52.227-19.
  
 Gaussian, Inc.
 340 Quinnipiac St., Bldg. 40, Wallingford CT 06492
  
  
 ---------------------------------------------------------------
 Warning -- This program may not be used in any manner that
 competes with the business of Gaussian, Inc. or will provide
 assistance to any competitor of Gaussian, Inc.  The licensee
 of this program is prohibited from giving any competitor of
 Gaussian, Inc. access to this program.  By using this program,
 the user acknowledges that Gaussian, Inc. is engaged in the
 business of creating and licensing software in the field of
 computational chemistry and represents and warrants to the
 licensee that it is not a competitor of Gaussian, Inc. and that
 it will not use this program in any manner prohibited above.
 ---------------------------------------------------------------
  

 Cite this work as:
 Gaussian 16, Revision B.01,
 M. J. Frisch, G. W. Trucks, H. B. Schlegel, G. E. Scuseria, 
 M. A. Robb, J. R. Cheeseman, G. Scalmani, V. Barone, 
 G. A. Petersson, H. Nakatsuji, X. Li, M. Caricato, A. V. Marenich, 
 J. Bloino, B. G. Janesko, R. Gomperts, B. Mennucci, H. P. Hratchian, 
 J. V. Ortiz, A. F. Izmaylov, J. L. Sonnenberg, D. Williams-Young, 
 F. Ding, F. Lipparini, F. Egidi, J. Goings, B. Peng, A. Petrone, 
 T. Henderson, D. Ranasinghe, V. G. Zakrzewski, J. Gao, N. Rega, 
 G. Zheng, W. Liang, M. Hada, M. Ehara, K. Toyota, R. Fukuda, 
 J. Hasegawa, M. Ishida, T. Nakajima, Y. Honda, O. Kitao, H. Nakai, 
 T. Vreven, K. Throssell, J. A. Montgomery, Jr., J. E. Peralta, 
 F. Ogliaro, M. J. Bearpark, J. J. Heyd, E. N. Brothers, K. N. Kudin, 
 V. N. Staroverov, T. A. Keith, R. Kobayashi, J. Normand, 
 K. Raghavachari, A. P. Rendell, J. C. Burant, S. S. Iyengar, 
 J. Tomasi, M. Cossi, J. M. Millam, M. Klene, C. Adamo, R. Cammi, 
 J. W. Ochterski, R. L. Martin, K. Morokuma, O. Farkas, 
 J. B. Foresman, and D. J. Fox, Gaussian, Inc., Wallingford CT, 2016.
 
 ******************************************
 Gaussian 16:  ES64L-G16RevB.01 20-Dec-2017
                13-Jan-2019 
 ******************************************
 %nprocshared=18
 Will use up to   18 processors via shared memory.
 %mem=24GB
 Default route: CacheSize=180224 MaxDisk=256GB
 ----------------------------------------------------------------------
 # opt freq m062x/6-311++g(d,p) scrf=(solvent=1,4-dioxane,smd) scf=(xqc
 ,maxconventionalcycles=400) temperature=443.15
 ----------------------------------------------------------------------
 1/4=180224,18=20,19=15,26=3,38=1,112=443150/1,3;
 2/4=180224,9=110,12=2,17=6,18=5,40=1/2;
 3/4=180224,5=4,6=6,7=1111,11=2,25=1,30=1,70=32201,71=1,72=31,74=-55/1,2,3;
 4/4=180224/1;
 5/4=180224,5=2,8=3,13=1,38=5,53=31,85=400/2,8;
 6/4=180224,7=2,8=2,9=2,10=2,28=1/1;
 7/4=180224/1,2,3,16;
 1/4=180224,18=20,19=15,26=3/3(2);
 2/4=180224,9=110/2;
 99/4=180224/99;
 2/4=180224,9=110/2;
 3/4=180224,5=4,6=6,7=1111,11=2,25=1,30=1,70=32205,71=1,72=31,74=-55/1,2,3;
 4/4=180224,5=5,16=3,69=1/1;
 5/4=180224,5=2,8=3,13=1,38=5,53=31,85=400/2,8;
 7/4=180224/1,2,3,16;
 1/4=180224,18=20,19=15,26=3/3(-5);
 2/4=180224,9=110/2;
 6/4=180224,7=2,8=2,9=2,10=2,19=2,28=1/1;
 99/4=180224,9=1/99;
 -------------------
 Title Card Required
 -------------------
 Symbolic Z-matrix:
 Charge =  1 Multiplicity = 1
 C                     2.41441   1.39815   0.24718 
 C                     3.28302   0.66191   1.29355 
 C                     3.4022   -0.76235   0.71334 
 C                     2.04919  -0.8782   -0.02082 
 O                     1.80834   0.35897  -0.56733 
 C                     3.16615   2.34003  -0.66447 
 C                     1.91074  -1.95113  -1.08929 
 O                     4.25138   1.62581  -1.24132 
 O                     2.72299   0.68296   2.5851 
 O                     0.98893  -1.0624    1.01414 
 O                     4.4784   -0.91352  -0.16319 
 O                     0.71389  -1.77573  -1.84203 
 H                     2.49149   2.71066  -1.44255 
 H                     3.52401   3.1856   -0.06869 
 H                     4.80388   2.21988  -1.7581 
 H                     1.61897   1.95616   0.74818 
 H                     4.27494   1.10601   1.37807 
 H                     1.80731   0.39009   2.53491 
 H                     3.50916  -1.49955   1.51139 
 H                     4.57282  -0.09948  -0.68574 
 H                    -0.3415   -1.00127   0.54315 
 H                     1.86842  -2.94021  -0.62994 
 H                     2.78749  -1.91114  -1.73603 
 H                     0.86835  -1.07021  -2.48004 
 H                     1.16131  -1.87235   1.51907 
 O                    -1.23627  -1.18857   0.02819 
 H                    -0.95055  -1.42469  -0.88077 
 H                    -2.10355  -0.66783   0.07524 
 C                    -4.16589   0.79889  -0.99076 
 C                    -5.357     1.58799  -0.47705 
 C                    -5.93057  -0.14792   0.95068 
 C                    -4.75088  -0.96764   0.4599 
 H                    -5.0465    2.22647   0.36118 
 H                    -5.75369   2.21739  -1.2742 
 H                    -4.45037   0.21291  -1.87239 
 H                    -3.34116   1.46536  -1.24611 
 H                    -5.63963   0.43279   1.83662 
 H                    -6.75445  -0.81057   1.21679 
 H                    -4.34924  -1.59063   1.2596 
 H                    -5.05321  -1.60113  -0.38147 
 O                    -3.68339  -0.10192   0.0241 
 O                    -6.39553   0.72063  -0.06499 
 
 Add virtual bond connecting atoms H21        and O10        Dist= 2.67D+00.
 Add virtual bond connecting atoms O41        and H28        Dist= 3.17D+00.

 GradGradGradGradGradGradGradGradGradGradGradGradGradGradGradGradGradGrad
 Berny optimization.
 Initialization pass.
                           ----------------------------
                           !    Initial Parameters    !
                           ! (Angstroms and Degrees)  !
 --------------------------                            --------------------------
 ! Name  Definition              Value          Derivative Info.                !
 --------------------------------------------------------------------------------
 ! R1    R(1,2)                  1.5464         estimate D2E/DX2                !
 ! R2    R(1,5)                  1.4528         estimate D2E/DX2                !
 ! R3    R(1,6)                  1.5111         estimate D2E/DX2                !
 ! R4    R(1,16)                 1.0932         estimate D2E/DX2                !
 ! R5    R(2,3)                  1.5425         estimate D2E/DX2                !
 ! R6    R(2,9)                  1.4079         estimate D2E/DX2                !
 ! R7    R(2,17)                 1.0901         estimate D2E/DX2                !
 ! R8    R(3,4)                  1.5437         estimate D2E/DX2                !
 ! R9    R(3,11)                 1.3962         estimate D2E/DX2                !
 ! R10   R(3,19)                 1.0917         estimate D2E/DX2                !
 ! R11   R(4,5)                  1.3738         estimate D2E/DX2                !
 ! R12   R(4,7)                  1.5205         estimate D2E/DX2                !
 ! R13   R(4,10)                 1.4931         estimate D2E/DX2                !
 ! R14   R(6,8)                  1.4215         estimate D2E/DX2                !
 ! R15   R(6,13)                 1.0945         estimate D2E/DX2                !
 ! R16   R(6,14)                 1.0945         estimate D2E/DX2                !
 ! R17   R(7,12)                 1.4247         estimate D2E/DX2                !
 ! R18   R(7,22)                 1.0914         estimate D2E/DX2                !
 ! R19   R(7,23)                 1.0902         estimate D2E/DX2                !
 ! R20   R(8,15)                 0.9619         estimate D2E/DX2                !
 ! R21   R(9,18)                 0.9627         estimate D2E/DX2                !
 ! R22   R(10,21)                1.4127         estimate D2E/DX2                !
 ! R23   R(10,25)                0.9699         estimate D2E/DX2                !
 ! R24   R(11,20)                0.9719         estimate D2E/DX2                !
 ! R25   R(12,24)                0.9637         estimate D2E/DX2                !
 ! R26   R(21,26)                1.0492         estimate D2E/DX2                !
 ! R27   R(26,27)                0.9816         estimate D2E/DX2                !
 ! R28   R(26,28)                1.0127         estimate D2E/DX2                !
 ! R29   R(28,41)                1.6789         estimate D2E/DX2                !
 ! R30   R(29,30)                1.5183         estimate D2E/DX2                !
 ! R31   R(29,35)                1.0962         estimate D2E/DX2                !
 ! R32   R(29,36)                1.0907         estimate D2E/DX2                !
 ! R33   R(29,41)                1.4402         estimate D2E/DX2                !
 ! R34   R(30,33)                1.0985         estimate D2E/DX2                !
 ! R35   R(30,34)                1.0904         estimate D2E/DX2                !
 ! R36   R(30,42)                1.4144         estimate D2E/DX2                !
 ! R37   R(31,32)                1.5181         estimate D2E/DX2                !
 ! R38   R(31,37)                1.0985         estimate D2E/DX2                !
 ! R39   R(31,38)                1.0903         estimate D2E/DX2                !
 ! R40   R(31,42)                1.415          estimate D2E/DX2                !
 ! R41   R(32,39)                1.0904         estimate D2E/DX2                !
 ! R42   R(32,40)                1.0957         estimate D2E/DX2                !
 ! R43   R(32,41)                1.4418         estimate D2E/DX2                !
 ! A1    A(2,1,5)              105.8503         estimate D2E/DX2                !
 ! A2    A(2,1,6)              115.185          estimate D2E/DX2                !
 ! A3    A(2,1,16)             109.9759         estimate D2E/DX2                !
 ! A4    A(5,1,6)              108.3695         estimate D2E/DX2                !
 ! A5    A(5,1,16)             108.5723         estimate D2E/DX2                !
 ! A6    A(6,1,16)             108.682          estimate D2E/DX2                !
 ! A7    A(1,2,3)              103.2077         estimate D2E/DX2                !
 ! A8    A(1,2,9)              112.965          estimate D2E/DX2                !
 ! A9    A(1,2,17)             111.6917         estimate D2E/DX2                !
 ! A10   A(3,2,9)              112.9297         estimate D2E/DX2                !
 ! A11   A(3,2,17)             109.5742         estimate D2E/DX2                !
 ! A12   A(9,2,17)             106.5432         estimate D2E/DX2                !
 ! A13   A(2,3,4)              100.3967         estimate D2E/DX2                !
 ! A14   A(2,3,11)             113.3077         estimate D2E/DX2                !
 ! A15   A(2,3,19)             110.8616         estimate D2E/DX2                !
 ! A16   A(4,3,11)             111.6474         estimate D2E/DX2                !
 ! A17   A(4,3,19)             112.5108         estimate D2E/DX2                !
 ! A18   A(11,3,19)            108.0771         estimate D2E/DX2                !
 ! A19   A(3,4,5)              105.978          estimate D2E/DX2                !
 ! A20   A(3,4,7)              117.8366         estimate D2E/DX2                !
 ! A21   A(3,4,10)             107.5773         estimate D2E/DX2                !
 ! A22   A(5,4,7)              109.8747         estimate D2E/DX2                !
 ! A23   A(5,4,10)             105.2102         estimate D2E/DX2                !
 ! A24   A(7,4,10)             109.596          estimate D2E/DX2                !
 ! A25   A(1,5,4)              110.3648         estimate D2E/DX2                !
 ! A26   A(1,6,8)              108.1471         estimate D2E/DX2                !
 ! A27   A(1,6,13)             109.4698         estimate D2E/DX2                !
 ! A28   A(1,6,14)             108.4091         estimate D2E/DX2                !
 ! A29   A(8,6,13)             110.6252         estimate D2E/DX2                !
 ! A30   A(8,6,14)             111.0656         estimate D2E/DX2                !
 ! A31   A(13,6,14)            109.0797         estimate D2E/DX2                !
 ! A32   A(4,7,12)             111.1545         estimate D2E/DX2                !
 ! A33   A(4,7,22)             110.3203         estimate D2E/DX2                !
 ! A34   A(4,7,23)             108.5267         estimate D2E/DX2                !
 ! A35   A(12,7,22)            107.54           estimate D2E/DX2                !
 ! A36   A(12,7,23)            110.9556         estimate D2E/DX2                !
 ! A37   A(22,7,23)            108.3074         estimate D2E/DX2                !
 ! A38   A(6,8,15)             110.257          estimate D2E/DX2                !
 ! A39   A(2,9,18)             109.025          estimate D2E/DX2                !
 ! A40   A(4,10,21)            115.6161         estimate D2E/DX2                !
 ! A41   A(4,10,25)            109.7359         estimate D2E/DX2                !
 ! A42   A(21,10,25)           112.1538         estimate D2E/DX2                !
 ! A43   A(3,11,20)            108.7677         estimate D2E/DX2                !
 ! A44   A(7,12,24)            107.7747         estimate D2E/DX2                !
 ! A45   A(10,21,26)           163.5479         estimate D2E/DX2                !
 ! A46   A(21,26,27)           104.4304         estimate D2E/DX2                !
 ! A47   A(21,26,28)           128.0054         estimate D2E/DX2                !
 ! A48   A(27,26,28)           114.5808         estimate D2E/DX2                !
 ! A49   A(30,29,35)           110.2647         estimate D2E/DX2                !
 ! A50   A(30,29,36)           110.7835         estimate D2E/DX2                !
 ! A51   A(30,29,41)           110.4549         estimate D2E/DX2                !
 ! A52   A(35,29,36)           109.5486         estimate D2E/DX2                !
 ! A53   A(35,29,41)           108.6226         estimate D2E/DX2                !
 ! A54   A(36,29,41)           107.0881         estimate D2E/DX2                !
 ! A55   A(29,30,33)           109.7866         estimate D2E/DX2                !
 ! A56   A(29,30,34)           109.7574         estimate D2E/DX2                !
 ! A57   A(29,30,42)           110.8463         estimate D2E/DX2                !
 ! A58   A(33,30,34)           108.977          estimate D2E/DX2                !
 ! A59   A(33,30,42)           109.9777         estimate D2E/DX2                !
 ! A60   A(34,30,42)           107.4469         estimate D2E/DX2                !
 ! A61   A(32,31,37)           109.8988         estimate D2E/DX2                !
 ! A62   A(32,31,38)           109.7522         estimate D2E/DX2                !
 ! A63   A(32,31,42)           110.778          estimate D2E/DX2                !
 ! A64   A(37,31,38)           108.9403         estimate D2E/DX2                !
 ! A65   A(37,31,42)           109.9645         estimate D2E/DX2                !
 ! A66   A(38,31,42)           107.4556         estimate D2E/DX2                !
 ! A67   A(31,32,39)           110.9559         estimate D2E/DX2                !
 ! A68   A(31,32,40)           110.2438         estimate D2E/DX2                !
 ! A69   A(31,32,41)           110.4169         estimate D2E/DX2                !
 ! A70   A(39,32,40)           109.5397         estimate D2E/DX2                !
 ! A71   A(39,32,41)           106.9786         estimate D2E/DX2                !
 ! A72   A(40,32,41)           108.6226         estimate D2E/DX2                !
 ! A73   A(28,41,29)           123.1984         estimate D2E/DX2                !
 ! A74   A(28,41,32)           119.0181         estimate D2E/DX2                !
 ! A75   A(29,41,32)           109.9068         estimate D2E/DX2                !
 ! A76   A(30,42,31)           110.1365         estimate D2E/DX2                !
 ! A77   L(26,28,41,13,-1)     189.5254         estimate D2E/DX2                !
 ! A78   L(26,28,41,13,-2)     171.5751         estimate D2E/DX2                !
 ! D1    D(5,1,2,3)             15.7181         estimate D2E/DX2                !
 ! D2    D(5,1,2,9)           -106.5638         estimate D2E/DX2                !
 ! D3    D(5,1,2,17)           133.345          estimate D2E/DX2                !
 ! D4    D(6,1,2,3)           -103.9863         estimate D2E/DX2                !
 ! D5    D(6,1,2,9)            133.7318         estimate D2E/DX2                !
 ! D6    D(6,1,2,17)            13.6406         estimate D2E/DX2                !
 ! D7    D(16,1,2,3)           132.8144         estimate D2E/DX2                !
 ! D8    D(16,1,2,9)            10.5325         estimate D2E/DX2                !
 ! D9    D(16,1,2,17)         -109.5587         estimate D2E/DX2                !
 ! D10   D(2,1,5,4)              8.7111         estimate D2E/DX2                !
 ! D11   D(6,1,5,4)            132.7941         estimate D2E/DX2                !
 ! D12   D(16,1,5,4)          -109.3254         estimate D2E/DX2                !
 ! D13   D(2,1,6,8)             52.2895         estimate D2E/DX2                !
 ! D14   D(2,1,6,13)           172.8898         estimate D2E/DX2                !
 ! D15   D(2,1,6,14)           -68.2239         estimate D2E/DX2                !
 ! D16   D(5,1,6,8)            -66.016          estimate D2E/DX2                !
 ! D17   D(5,1,6,13)            54.5843         estimate D2E/DX2                !
 ! D18   D(5,1,6,14)           173.4706         estimate D2E/DX2                !
 ! D19   D(16,1,6,8)           176.1735         estimate D2E/DX2                !
 ! D20   D(16,1,6,13)          -63.2262         estimate D2E/DX2                !
 ! D21   D(16,1,6,14)           55.6601         estimate D2E/DX2                !
 ! D22   D(1,2,3,4)            -31.1381         estimate D2E/DX2                !
 ! D23   D(1,2,3,11)            88.0333         estimate D2E/DX2                !
 ! D24   D(1,2,3,19)          -150.2474         estimate D2E/DX2                !
 ! D25   D(9,2,3,4)             91.1675         estimate D2E/DX2                !
 ! D26   D(9,2,3,11)          -149.6611         estimate D2E/DX2                !
 ! D27   D(9,2,3,19)           -27.9418         estimate D2E/DX2                !
 ! D28   D(17,2,3,4)          -150.2418         estimate D2E/DX2                !
 ! D29   D(17,2,3,11)          -31.0704         estimate D2E/DX2                !
 ! D30   D(17,2,3,19)           90.6489         estimate D2E/DX2                !
 ! D31   D(1,2,9,18)            50.6523         estimate D2E/DX2                !
 ! D32   D(3,2,9,18)           -66.008          estimate D2E/DX2                !
 ! D33   D(17,2,9,18)          173.6518         estimate D2E/DX2                !
 ! D34   D(2,3,4,5)             38.0024         estimate D2E/DX2                !
 ! D35   D(2,3,4,7)            161.4448         estimate D2E/DX2                !
 ! D36   D(2,3,4,10)           -74.1439         estimate D2E/DX2                !
 ! D37   D(11,3,4,5)           -82.3699         estimate D2E/DX2                !
 ! D38   D(11,3,4,7)            41.0725         estimate D2E/DX2                !
 ! D39   D(11,3,4,10)          165.4838         estimate D2E/DX2                !
 ! D40   D(19,3,4,5)           155.9041         estimate D2E/DX2                !
 ! D41   D(19,3,4,7)           -80.6535         estimate D2E/DX2                !
 ! D42   D(19,3,4,10)           43.7577         estimate D2E/DX2                !
 ! D43   D(2,3,11,20)          -37.3877         estimate D2E/DX2                !
 ! D44   D(4,3,11,20)           75.0945         estimate D2E/DX2                !
 ! D45   D(19,3,11,20)        -160.6528         estimate D2E/DX2                !
 ! D46   D(3,4,5,1)            -29.8458         estimate D2E/DX2                !
 ! D47   D(7,4,5,1)           -158.1608         estimate D2E/DX2                !
 ! D48   D(10,4,5,1)            83.9438         estimate D2E/DX2                !
 ! D49   D(3,4,7,12)          -169.0944         estimate D2E/DX2                !
 ! D50   D(3,4,7,22)            71.7036         estimate D2E/DX2                !
 ! D51   D(3,4,7,23)           -46.8099         estimate D2E/DX2                !
 ! D52   D(5,4,7,12)           -47.635          estimate D2E/DX2                !
 ! D53   D(5,4,7,22)          -166.837          estimate D2E/DX2                !
 ! D54   D(5,4,7,23)            74.6495         estimate D2E/DX2                !
 ! D55   D(10,4,7,12)           67.5045         estimate D2E/DX2                !
 ! D56   D(10,4,7,22)          -51.6975         estimate D2E/DX2                !
 ! D57   D(10,4,7,23)         -170.2111         estimate D2E/DX2                !
 ! D58   D(3,4,10,21)          171.5127         estimate D2E/DX2                !
 ! D59   D(3,4,10,25)          -60.4402         estimate D2E/DX2                !
 ! D60   D(5,4,10,21)           58.8466         estimate D2E/DX2                !
 ! D61   D(5,4,10,25)         -173.1063         estimate D2E/DX2                !
 ! D62   D(7,4,10,21)          -59.2368         estimate D2E/DX2                !
 ! D63   D(7,4,10,25)           68.8102         estimate D2E/DX2                !
 ! D64   D(1,6,8,15)          -174.2554         estimate D2E/DX2                !
 ! D65   D(13,6,8,15)           65.8676         estimate D2E/DX2                !
 ! D66   D(14,6,8,15)          -55.4147         estimate D2E/DX2                !
 ! D67   D(4,7,12,24)           78.5603         estimate D2E/DX2                !
 ! D68   D(22,7,12,24)        -160.5877         estimate D2E/DX2                !
 ! D69   D(23,7,12,24)         -42.3059         estimate D2E/DX2                !
 ! D70   D(4,10,21,26)          60.1127         estimate D2E/DX2                !
 ! D71   D(25,10,21,26)        -66.7256         estimate D2E/DX2                !
 ! D72   D(10,21,26,27)        -38.4493         estimate D2E/DX2                !
 ! D73   D(10,21,26,28)       -176.7115         estimate D2E/DX2                !
 ! D74   D(21,26,41,29)        102.122          estimate D2E/DX2                !
 ! D75   D(21,26,41,32)       -116.4881         estimate D2E/DX2                !
 ! D76   D(27,26,41,29)        -38.0243         estimate D2E/DX2                !
 ! D77   D(27,26,41,32)        103.3656         estimate D2E/DX2                !
 ! D78   D(35,29,30,33)       -175.9812         estimate D2E/DX2                !
 ! D79   D(35,29,30,34)        -56.2173         estimate D2E/DX2                !
 ! D80   D(35,29,30,42)         62.3157         estimate D2E/DX2                !
 ! D81   D(36,29,30,33)        -54.5389         estimate D2E/DX2                !
 ! D82   D(36,29,30,34)         65.225          estimate D2E/DX2                !
 ! D83   D(36,29,30,42)       -176.242          estimate D2E/DX2                !
 ! D84   D(41,29,30,33)         63.9511         estimate D2E/DX2                !
 ! D85   D(41,29,30,34)       -176.2849         estimate D2E/DX2                !
 ! D86   D(41,29,30,42)        -57.7519         estimate D2E/DX2                !
 ! D87   D(30,29,41,28)       -155.2006         estimate D2E/DX2                !
 ! D88   D(30,29,41,32)         56.205          estimate D2E/DX2                !
 ! D89   D(35,29,41,28)         83.7499         estimate D2E/DX2                !
 ! D90   D(35,29,41,32)        -64.8446         estimate D2E/DX2                !
 ! D91   D(36,29,41,28)        -34.4788         estimate D2E/DX2                !
 ! D92   D(36,29,41,32)        176.9267         estimate D2E/DX2                !
 ! D93   D(29,30,42,31)         58.6535         estimate D2E/DX2                !
 ! D94   D(33,30,42,31)        -62.9374         estimate D2E/DX2                !
 ! D95   D(34,30,42,31)        178.5765         estimate D2E/DX2                !
 ! D96   D(37,31,32,39)         54.5946         estimate D2E/DX2                !
 ! D97   D(37,31,32,40)        176.1263         estimate D2E/DX2                !
 ! D98   D(37,31,32,41)        -63.844          estimate D2E/DX2                !
 ! D99   D(38,31,32,39)        -65.1906         estimate D2E/DX2                !
 ! D100  D(38,31,32,40)         56.3412         estimate D2E/DX2                !
 ! D101  D(38,31,32,41)        176.3709         estimate D2E/DX2                !
 ! D102  D(42,31,32,39)        176.3111         estimate D2E/DX2                !
 ! D103  D(42,31,32,40)        -62.1572         estimate D2E/DX2                !
 ! D104  D(42,31,32,41)         57.8725         estimate D2E/DX2                !
 ! D105  D(32,31,42,30)        -58.7211         estimate D2E/DX2                !
 ! D106  D(37,31,42,30)         62.9569         estimate D2E/DX2                !
 ! D107  D(38,31,42,30)       -178.6033         estimate D2E/DX2                !
 ! D108  D(31,32,41,28)        153.6203         estimate D2E/DX2                !
 ! D109  D(31,32,41,29)        -56.2894         estimate D2E/DX2                !
 ! D110  D(39,32,41,28)         32.7788         estimate D2E/DX2                !
 ! D111  D(39,32,41,29)       -177.1309         estimate D2E/DX2                !
 ! D112  D(40,32,41,28)        -85.3795         estimate D2E/DX2                !
 ! D113  D(40,32,41,29)         64.7108         estimate D2E/DX2                !
 --------------------------------------------------------------------------------
 Trust Radius=3.00D-01 FncErr=1.00D-07 GrdErr=1.00D-06 EigMax=2.50D+02 EigMin=1.00D-04
 Number of steps in this run=    244 maximum allowed number of steps=    252.
 GradGradGradGradGradGradGradGradGradGradGradGradGradGradGradGradGradGrad

                          Input orientation:                          
 ---------------------------------------------------------------------
 Center     Atomic      Atomic             Coordinates (Angstroms)
 Number     Number       Type             X           Y           Z
 ---------------------------------------------------------------------
      1          6           0        2.414407    1.398153    0.247184
      2          6           0        3.283021    0.661907    1.293547
      3          6           0        3.402199   -0.762348    0.713340
      4          6           0        2.049190   -0.878197   -0.020823
      5          8           0        1.808343    0.358973   -0.567326
      6          6           0        3.166150    2.340026   -0.664465
      7          6           0        1.910742   -1.951130   -1.089292
      8          8           0        4.251380    1.625807   -1.241315
      9          8           0        2.722991    0.682962    2.585099
     10          8           0        0.988929   -1.062396    1.014143
     11          8           0        4.478399   -0.913519   -0.163185
     12          8           0        0.713890   -1.775734   -1.842027
     13          1           0        2.491489    2.710661   -1.442545
     14          1           0        3.524014    3.185596   -0.068693
     15          1           0        4.803884    2.219875   -1.758097
     16          1           0        1.618967    1.956156    0.748180
     17          1           0        4.274935    1.106006    1.378065
     18          1           0        1.807309    0.390086    2.534913
     19          1           0        3.509160   -1.499547    1.511390
     20          1           0        4.572825   -0.099475   -0.685735
     21          1           0       -0.341503   -1.001268    0.543154
     22          1           0        1.868420   -2.940206   -0.629940
     23          1           0        2.787493   -1.911140   -1.736026
     24          1           0        0.868349   -1.070211   -2.480037
     25          1           0        1.161311   -1.872351    1.519070
     26          8           0       -1.236265   -1.188567    0.028185
     27          1           0       -0.950554   -1.424690   -0.880770
     28          1           0       -2.103550   -0.667830    0.075236
     29          6           0       -4.165891    0.798893   -0.990763
     30          6           0       -5.356997    1.587991   -0.477047
     31          6           0       -5.930572   -0.147920    0.950679
     32          6           0       -4.750875   -0.967635    0.459895
     33          1           0       -5.046503    2.226473    0.361182
     34          1           0       -5.753689    2.217389   -1.274201
     35          1           0       -4.450374    0.212910   -1.872394
     36          1           0       -3.341159    1.465360   -1.246107
     37          1           0       -5.639626    0.432787    1.836622
     38          1           0       -6.754452   -0.810573    1.216790
     39          1           0       -4.349238   -1.590631    1.259596
     40          1           0       -5.053209   -1.601131   -0.381470
     41          8           0       -3.683387   -0.101922    0.024101
     42          8           0       -6.395526    0.720629   -0.064985
 ---------------------------------------------------------------------
                    Distance matrix (angstroms):
                    1          2          3          4          5
     1  C    0.000000
     2  C    1.546423   0.000000
     3  C    2.420909   1.542513   0.000000
     4  C    2.320987   2.371039   1.543713   0.000000
     5  O    1.452803   2.393594   2.331918   1.373777   0.000000
     6  C    1.511075   2.581386   3.402762   3.466819   2.403674
     7  C    3.641091   3.793288   2.624334   1.520519   2.370551
     8  O    2.375274   2.879644   3.200792   3.550954   2.833295
     9  O    2.464258   1.407900   2.460432   3.111600   3.298383
    10  O    2.945253   2.883426   2.450384   1.493063   2.278766
    11  O    3.126067   2.456209   1.396193   2.433633   2.985258
    12  O    4.162946   4.730153   3.844978   2.430099   2.716554
    13  H    2.140982   3.508577   4.187962   3.885463   2.600602
    14  H    2.127430   2.877982   4.026497   4.323403   3.343944
    15  H    3.225830   3.748709   4.119026   4.494943   3.722117
    16  H    1.093201   2.177517   3.251368   2.968167   2.077839
    17  H    2.196772   1.090074   2.166627   3.293614   3.229037
    18  H    2.572639   1.947460   2.681400   2.863361   3.102395
    19  H    3.345649   2.184142   1.091690   2.205735   3.266181
    20  H    2.787830   2.482107   1.940922   2.723463   2.804738
    21  H    3.666041   4.057883   3.755177   2.459396   2.775835
    22  H    4.459687   4.321587   2.983278   2.157680   3.300320
    23  H    3.876046   4.005550   2.774343   2.134007   2.734595
    24  H    3.990094   4.803208   4.088133   2.734774   2.566051
    25  H    3.726143   3.312850   2.627334   2.036650   3.122580
    26  O    4.479563   5.044734   4.708126   3.300446   3.466865
    27  H    4.534720   5.196605   4.682557   3.168064   3.300184
    28  H    4.970894   5.680460   5.543409   4.159174   4.095133
    29  C    6.722496   7.792505   7.913117   6.510042   6.005356
    30  C    7.807386   8.868063   9.146837   7.819324   7.270539
    31  C    8.516098   9.255467   9.355986   8.071786   7.902663
    32  C    7.548739   8.239774   8.159595   6.817622   6.770407
    33  H    7.507615   8.526321   8.968703   7.754596   7.165096
    34  H    8.348865   9.522341   9.831553   8.487551   7.819061
    35  H    7.281664   8.368404   8.324665   6.845667   6.395004
    36  H    5.946509   7.139688   7.367156   6.004119   5.310575
    37  H    8.265936   8.942095   9.189380   8.017897   7.826663
    38  H    9.480853  10.145194  10.169235   8.890465   8.824532
    39  H    7.463558   7.957792   7.814680   6.564062   6.712258
    40  H    8.071939   8.798850   8.567152   7.148201   7.138448
    41  O    6.283557   7.122202   7.149597   5.785072   5.542681
    42  O    8.841460   9.773604   9.939840   8.594849   8.227187
                    6          7          8          9         10
     6  C    0.000000
     7  C    4.491163   0.000000
     8  O    1.421474   4.277403   0.000000
     9  O    3.674496   4.593402   4.226863   0.000000
    10  O    4.374299   2.462524   4.791358   2.919101   0.000000
    11  O    3.543845   2.920132   2.768046   3.630878   3.685738
    12  O    4.933529   1.424720   4.944206   5.448038   2.956722
    13  H    1.094507   4.711088   2.077166   4.515205   4.746468
    14  H    1.094532   5.479984   2.082557   3.734625   5.064052
    15  H    1.972977   5.120044   0.961895   5.055252   5.745650
    16  H    2.129952   4.327623   3.316145   2.492822   3.095051
    17  H    2.631376   4.585122   2.670562   2.011076   3.953763
    18  H    3.985566   4.315884   4.664803   0.962688   2.256588
    19  H    4.426547   3.085841   4.230380   2.556220   2.605747
    20  H    2.816088   3.267747   1.840813   3.838287   4.081803
    21  H    4.992616   2.939341   5.583944   4.049357   1.412663
    22  H    5.437476   1.091360   5.186594   4.918751   2.646258
    23  H    4.400459   1.090209   3.859754   5.040401   3.393910
    24  H    4.495098   1.948531   4.499760   5.671765   3.496269
    25  H    5.150857   2.715033   5.422671   3.178818   0.969894
    26  O    5.684364   3.425480   6.296553   5.071108   2.437113
    27  H    5.582753   2.916785   6.041162   5.472602   2.735607
    28  H    6.112618   4.372359   6.883256   5.605314   3.255865
    29  C    7.499359   6.670667   8.461502   7.762533   5.835770
    30  C    8.558313   8.106803   9.638799   8.688039   7.036972
    31  C    9.568120   8.300557  10.565183   8.845668   6.979956
    32  C    8.653559   6.909731   9.521589   7.943528   5.767280
    33  H    8.277229   8.243755   9.454069   8.227592   6.904307
    34  H    8.941496   8.726640  10.022597   9.439426   7.839414
    35  H    7.999697   6.764622   8.838273   8.458567   6.288443
    36  H    6.591541   6.267333   7.594236   7.215553   5.499813
    37  H    9.350652   8.441095  10.427320   8.399772   6.844690
    38  H   10.577511   9.039053  11.537182   9.691483   7.750125
    39  H    8.696731   6.695863   9.516862   7.546032   5.369852
    40  H    9.119795   7.008575   9.885739   8.630579   6.224581
    41  O    7.304341   5.996123   8.218689   6.943805   4.871676
    42  O    9.716351   8.785305  10.749870   9.495879   7.672931
                   11         12         13         14         15
    11  O    0.000000
    12  O    4.211111   0.000000
    13  H    4.326575   4.842229   0.000000
    14  H    4.209813   5.971290   1.783014   0.000000
    15  H    3.530983   5.718390   2.384872   2.329114   0.000000
    16  H    4.152345   4.631991   2.475853   2.409981   4.061363
    17  H    2.548594   5.599505   3.702896   2.642288   3.369867
    18  H    4.014205   5.004393   4.655464   4.188164   5.545947
    19  H    2.021646   4.374382   5.242827   4.944436   5.118589
    20  H    0.971927   4.363283   3.577930   3.503204   2.565684
    21  H    4.872173   2.720798   5.074176   5.731179   6.492036
    22  H    3.337261   2.039139   5.742895   6.370356   6.042857
    23  H    2.515599   2.080721   4.640560   5.412872   4.596913
    24  H    4.292414   0.963679   4.243344   5.565881   5.180183
    25  H    3.840887   3.392122   5.616452   5.803980   6.383923
    26  O    5.724479   2.765061   5.591348   6.465520   7.161821
    27  H    5.499978   1.953873   5.409656   6.475798   6.867759
    28  H    6.590847   3.583478   5.901885   6.821956   7.707957
    29  C    8.851045   5.582617   6.941158   8.104394   9.113992
    30  C   10.153378   7.073435   7.986946   9.032799  10.260793
    31  C   10.496357   7.389037   9.210327  10.076738  11.321328
    32  C    9.250441   5.984607   8.342720   9.273754  10.313735
    33  H   10.042822   7.352137   7.765899   8.634725  10.075788
    34  H   10.757907   7.622141   8.261635   9.405660  10.568657
    35  H    9.160416   5.534008   7.390060   8.699486   9.470072
    36  H    8.244833   5.225250   5.967340   7.174686   8.195923
    37  H   10.401259   7.666628   9.058514   9.756048  11.188503
    38  H   11.317768   8.127978  10.244929  11.102644  12.313761
    39  H    8.967160   5.940504   8.520459   9.304020  10.363690
    40  H    9.558871   5.951735   8.754422   9.827479  10.661026
    41  O    8.204177   5.061633   6.941957   7.922311   8.977791
    42  O   10.996469   7.741673   9.210697  10.221221  11.425461
                   16         17         18         19         20
    16  H    0.000000
    17  H    2.858964   0.000000
    18  H    2.383372   2.817804   0.000000
    19  H    4.012132   2.719024   2.741279   0.000000
    20  H    3.873888   2.408567   4.273210   2.814062   0.000000
    21  H    3.554129   5.142877   3.243511   4.001671   5.145291
    22  H    5.092721   5.118128   4.594657   3.058238   3.922585
    23  H    4.742648   4.584018   4.949477   3.352003   2.751845
    24  H    4.488174   5.587996   5.306961   4.805174   4.229065
    25  H    3.932071   4.311049   2.562786   2.377275   4.432007
    26  O    4.308135   6.120504   4.247255   4.981532   5.953262
    27  H    4.548190   6.229967   4.750380   5.061332   5.683480
    28  H    4.603834   6.747513   4.739622   5.852931   6.743596
    29  C    6.150428   8.772298   6.948139   8.393450   8.790066
    30  C    7.092306   9.820787   7.863470   9.596641  10.074346
    31  C    7.839878  10.291130   7.916694   9.552478  10.630219
    32  C    7.014738   9.306356   7.011340   8.343665   9.433851
    33  H    6.682165   9.443448   7.421062   9.402424   9.951761
    34  H    7.649466  10.432784   8.661240  10.362215  10.599577
    35  H    6.836901   9.353829   7.656000   8.816841   9.106254
    36  H    5.368511   8.063517   6.477581   7.957470   8.086648
    37  H    7.496168   9.947966   7.479724   9.356280  10.532794
    38  H    8.831112  11.195832   8.745443  10.290928  11.507931
    39  H    6.961373   9.036717   6.591870   7.862958   9.252625
    40  H    7.645151   9.871111   7.716019   8.769686   9.747209
    41  O    5.733667   8.162548   6.057557   7.476504   8.286671
    42  O    8.149838  10.774491   8.611343  10.272144  11.016471
                   21         22         23         24         25
    21  H    0.000000
    22  H    3.165342   0.000000
    23  H    3.976574   1.768360   0.000000
    24  H    3.257020   2.814229   2.223472   0.000000
    25  H    1.992397   2.501712   3.638904   4.089268   0.000000
    26  O    1.049225   3.624974   4.452548   3.276368   2.904939
    27  H    1.605549   3.210346   3.865371   2.447799   3.227941
    28  H    1.853359   4.630066   5.361790   3.939989   3.767605
    29  C    4.496601   7.108021   7.499950   5.572707   6.466366
    30  C    5.735874   8.528458   8.953305   7.059245   7.645050
    31  C    5.668507   8.433237   9.291501   7.671099   7.320624
    32  C    4.410286   6.992413   7.908177   6.342665   6.074068
    33  H    5.708630   8.688674   9.104373   7.343441   7.528480
    34  H    6.553952   9.225638   9.497885   7.490911   8.505619
    35  H    4.918528   7.170285   7.544329   5.504947   6.880505
    36  H    4.275938   6.850430   7.014353   5.066721   6.249700
    37  H    5.639121   8.592541   9.448499   7.952753   7.187993
    38  H    6.451051   9.071917  10.048835   8.475909   7.992374
    39  H    4.113706   6.637090   7.746574   6.440412   5.523843
    40  H    4.838898   7.054347   7.962885   6.304816   6.504296
    41  O    3.499490   6.269465   6.945762   5.284562   5.370331
    42  O    6.323445   9.056141   9.697754   7.861518   8.144849
                   26         27         28         29         30
    26  O    0.000000
    27  H    0.981623   0.000000
    28  H    1.012701   1.678149   0.000000
    29  C    3.683878   3.910858   2.746066   0.000000
    30  C    4.994494   5.353128   3.997332   1.518326   0.000000
    31  C    4.895964   5.457557   3.960152   2.789220   2.319650
    32  C    3.547910   4.055702   2.691872   2.359499   2.788632
    33  H    5.127504   5.625854   4.137599   2.154348   1.098496
    34  H    5.805503   6.040665   4.844480   2.147922   1.090395
    35  H    3.988337   3.989209   3.174358   1.096166   2.158658
    36  H    3.619078   3.768402   2.797878   1.090670   2.161040
    37  H    5.028799   5.729035   4.100935   3.209367   2.601430
    38  H    5.657389   6.201784   4.791076   3.763551   3.251934
    39  H    3.371740   4.019920   2.701367   3.287485   3.759674
    40  H    3.860970   4.136691   3.127318   2.630340   3.204984
    41  O    2.677540   3.168104   1.678914   1.440218   2.430622
    42  O    5.501971   5.908944   4.513152   2.415463   1.414445
                   31         32         33         34         35
    31  C    0.000000
    32  C    1.518054   0.000000
    33  H    2.601313   3.209278   0.000000
    34  H    3.252086   3.762593   1.781761   0.000000
    35  H    3.207947   2.631266   3.065725   2.464630   0.000000
    36  H    3.759468   3.288952   2.463913   2.527180   1.786400
    37  H    1.098529   2.155560   2.397087   3.588180   3.901213
    38  H    1.090276   2.147529   3.587869   4.046618   3.987399
    39  H    2.162744   1.090394   3.982915   4.784728   3.615570
    40  H    2.157825   1.095727   3.898991   3.983558   2.424254
    41  O    2.431153   1.441841   2.719031   3.369116   2.069802
    42  O    1.414967   2.414666   2.066167   2.028410   2.703354
                   36         37         38         39         40
    36  H    0.000000
    37  H    3.981504   0.000000
    38  H    4.785008   1.781284   0.000000
    39  H    4.078462   2.468255   2.528908   0.000000
    40  H    3.616916   3.066046   2.464477   1.785716   0.000000
    41  O    2.046197   2.719930   3.369886   2.045986   2.070876
    42  O    3.358397   2.066482   2.028880   3.359127   2.700472
                   41         42
    41  O    0.000000
    42  O    2.835529   0.000000
 Stoichiometry    C10H23O9(1+)
 Framework group  C1[X(C10H23O9)]
 Deg. of freedom   120
 Full point group                 C1      NOp   1
 Largest Abelian subgroup         C1      NOp   1
 Largest concise Abelian subgroup C1      NOp   1
                         Standard orientation:                         
 ---------------------------------------------------------------------
 Center     Atomic      Atomic             Coordinates (Angstroms)
 Number     Number       Type             X           Y           Z
 ---------------------------------------------------------------------
      1          6           0        2.449534    1.398577    0.194979
      2          6           0        3.318982    0.702079    1.267534
      3          6           0        3.435914   -0.743487    0.742166
      4          6           0        2.081706   -0.885994    0.014937
      5          8           0        1.841252    0.329570   -0.578230
      6          6           0        3.200840    2.304047   -0.753182
      7          6           0        1.940630   -1.998943   -1.011426
      8          8           0        4.284518    1.567130   -1.303803
      9          8           0        2.760889    0.773191    2.558138
     10          8           0        1.022802   -1.029304    1.057733
     11          8           0        4.510666   -0.929245   -0.129475
     12          8           0        0.742835   -1.851292   -1.768600
     13          1           0        2.525387    2.645285   -1.543919
     14          1           0        3.560409    3.171460   -0.190771
     15          1           0        4.836833    2.140389   -1.843770
     16          1           0        1.655381    1.976188    0.675371
     17          1           0        4.311452    1.148070    1.333537
     18          1           0        1.844849    0.479549    2.520536
     19          1           0        3.543342   -1.449670    1.567727
     20          1           0        4.605109   -0.135922   -0.682975
     21          1           0       -0.308266   -0.984902    0.586670
     22          1           0        1.898028   -2.969645   -0.514444
     23          1           0        2.816460   -1.984669   -1.660483
     24          1           0        0.897033   -1.170897   -2.433403
     25          1           0        1.195145   -1.819490    1.593081
     26          8           0       -1.203973   -1.190878    0.080550
     27          1           0       -0.919840   -1.461956   -0.819099
     28          1           0       -2.070680   -0.667829    0.108862
     29          6           0       -4.133172    0.759085   -1.009585
     30          6           0       -5.322747    1.568515   -0.524768
     31          6           0       -5.895892   -0.110815    0.969264
     32          6           0       -4.717722   -0.949949    0.508553
     33          1           0       -5.010390    2.238332    0.287926
     34          1           0       -5.720009    2.167309   -1.344884
     35          1           0       -4.419532    0.140038   -1.867699
     36          1           0       -3.308172    1.414428   -1.291474
     37          1           0       -5.603068    0.503118    1.831880
     38          1           0       -6.720021   -0.761935    1.261766
     39          1           0       -4.315506   -1.542253    1.330961
     40          1           0       -5.021920   -1.614912   -0.307478
     41          8           0       -3.650040   -0.102671    0.038359
     42          8           0       -6.361507    0.718651   -0.078268
 ---------------------------------------------------------------------
 Rotational constants (GHZ):           0.6606112           0.1216321           0.1183292
 Standard basis: 6-311++G(d,p) (5D, 7F)
 There are   598 symmetry adapted cartesian basis functions of A   symmetry.
 There are   579 symmetry adapted basis functions of A   symmetry.
   579 basis functions,   891 primitive gaussians,   598 cartesian basis functions
    77 alpha electrons       77 beta electrons
       nuclear repulsion energy      1658.5799257468 Hartrees.
 NAtoms=   42 NActive=   42 NUniq=   42 SFac= 1.00D+00 NAtFMM=   60 NAOKFM=F Big=F
 Integral buffers will be    131072 words long.
 Raffenetti 2 integral format.
 Two-electron integral symmetry is turned on.
 ------------------------------------------------------------------------------
 Polarizable Continuum Model (PCM)
 =================================
 Model                : PCM.
 Atomic radii         : SMD-Coulomb.
 Polarization charges : Total charges.
 Charge compensation  : None.
 Solution method      : On-the-fly selection.
 Cavity type          : VdW (van der Waals Surface) (Alpha=1.000).
 Cavity algorithm     : GePol (No added spheres)
                        Default sphere list used, NSphG=   42.
                        Lebedev-Laikov grids with approx.  5.0 points / Ang**2.
                        Smoothing algorithm: York/Karplus (Gamma=1.0000).
                        Polarization charges: spherical gaussians, with
                                              point-specific exponents (IZeta= 3).
                        Self-potential: point-specific (ISelfS= 7).
                        Self-field    : sphere-specific E.n sum rule (ISelfD= 2).
 1st derivatives      : Analytical E(r).r(x)/FMM algorithm (CHGder, D1EAlg=3).
                        Cavity 1st derivative terms included.
 Solvent              : 1,4-Dioxane, Eps=   2.209900 Eps(inf)=   2.023222
 ------------------------------------------------------------------------------
 ------------------------------------------------------------------------------
 Atomic radii for non-electrostatic terms: SMD-CDS.
 ------------------------------------------------------------------------------
 Nuclear repulsion after PCM non-electrostatic terms =     1658.5722555945 Hartrees.
 One-electron integrals computed using PRISM.
 NBasis=   579 RedAO= T EigKep=  2.12D-06  NBF=   579
 NBsUse=   579 1.00D-06 EigRej= -1.00D+00 NBFU=   579
 ExpMin= 3.60D-02 ExpMax= 8.59D+03 ExpMxC= 1.30D+03 IAcc=3 IRadAn=         5 AccDes= 0.00D+00
 Harris functional with IExCor= 1009 and IRadAn=       5 diagonalized for initial guess.
 HarFok:  IExCor= 1009 AccDes= 0.00D+00 IRadAn=         5 IDoV= 1 UseB2=F ITyADJ=14
 ICtDFT=  3500011 ScaDFX=  1.000000  1.000000  1.000000  1.000000
 FoFCou: FMM=F IPFlag=           0 FMFlag=      100000 FMFlg1=           0
         NFxFlg=           0 DoJE=T BraDBF=F KetDBF=T FulRan=T
         wScrn=  0.000000 ICntrl=       500 IOpCl=  0 I1Cent=   200000004 NGrid=           0
         NMat0=    1 NMatS0=      1 NMatT0=    0 NMatD0=    1 NMtDS0=    0 NMtDT0=    0
 Petite list used in FoFCou.
 Requested convergence on RMS density matrix=1.00D-08 within 400 cycles.
 Requested convergence on MAX density matrix=1.00D-06.
 Requested convergence on             energy=1.00D-06.
 No special actions if energy rises.
 Inv3:  Mode=1 IEnd=    23654592.
 Iteration    1 A*A^-1 deviation from unit magnitude is 3.22D-15 for   2458.
 Iteration    1 A*A^-1 deviation from orthogonality  is 2.22D-15 for   1673    638.
 Iteration    1 A^-1*A deviation from unit magnitude is 3.00D-15 for   2458.
 Iteration    1 A^-1*A deviation from orthogonality  is 2.11D-15 for   2036   1175.
 Error on total polarization charges =  0.03391
 SCF Done:  E(RM062X) =  -1071.62012180     A.U. after   13 cycles
            NFock= 13  Conv=0.51D-08     -V/T= 2.0035
 SMD-CDS (non-electrostatic) energy       (kcal/mol) =      -4.81
 (included in total energy above)
 QCSCF skips out because SCF is already converged.

 **********************************************************************

            Population analysis using the SCF Density.

 **********************************************************************

 Orbital symmetries:
       Occupied  (A) (A) (A) (A) (A) (A) (A) (A) (A) (A) (A) (A)
                 (A) (A) (A) (A) (A) (A) (A) (A) (A) (A) (A) (A)
                 (A) (A) (A) (A) (A) (A) (A) (A) (A) (A) (A) (A)
                 (A) (A) (A) (A) (A) (A) (A) (A) (A) (A) (A) (A)
                 (A) (A) (A) (A) (A) (A) (A) (A) (A) (A) (A) (A)
                 (A) (A) (A) (A) (A) (A) (A) (A) (A) (A) (A) (A)
                 (A) (A) (A) (A) (A)
       Virtual   (A) (A) (A) (A) (A) (A) (A) (A) (A) (A) (A) (A)
                 (A) (A) (A) (A) (A) (A) (A) (A) (A) (A) (A) (A)
                 (A) (A) (A) (A) (A) (A) (A) (A) (A) (A) (A) (A)
                 (A) (A) (A) (A) (A) (A) (A) (A) (A) (A) (A) (A)
                 (A) (A) (A) (A) (A) (A) (A) (A) (A) (A) (A) (A)
                 (A) (A) (A) (A) (A) (A) (A) (A) (A) (A) (A) (A)
                 (A) (A) (A) (A) (A) (A) (A) (A) (A) (A) (A) (A)
                 (A) (A) (A) (A) (A) (A) (A) (A) (A) (A) (A) (A)
                 (A) (A) (A) (A) (A) (A) (A) (A) (A) (A) (A) (A)
                 (A) (A) (A) (A) (A) (A) (A) (A) (A) (A) (A) (A)
                 (A) (A) (A) (A) (A) (A) (A) (A) (A) (A) (A) (A)
                 (A) (A) (A) (A) (A) (A) (A) (A) (A) (A) (A) (A)
                 (A) (A) (A) (A) (A) (A) (A) (A) (A) (A) (A) (A)
                 (A) (A) (A) (A) (A) (A) (A) (A) (A) (A) (A) (A)
                 (A) (A) (A) (A) (A) (A) (A) (A) (A) (A) (A) (A)
                 (A) (A) (A) (A) (A) (A) (A) (A) (A) (A) (A) (A)
                 (A) (A) (A) (A) (A) (A) (A) (A) (A) (A) (A) (A)
                 (A) (A) (A) (A) (A) (A) (A) (A) (A) (A) (A) (A)
                 (A) (A) (A) (A) (A) (A) (A) (A) (A) (A) (A) (A)
                 (A) (A) (A) (A) (A) (A) (A) (A) (A) (A) (A) (A)
                 (A) (A) (A) (A) (A) (A) (A) (A) (A) (A) (A) (A)
                 (A) (A) (A) (A) (A) (A) (A) (A) (A) (A) (A) (A)
                 (A) (A) (A) (A) (A) (A) (A) (A) (A) (A) (A) (A)
                 (A) (A) (A) (A) (A) (A) (A) (A) (A) (A) (A) (A)
                 (A) (A) (A) (A) (A) (A) (A) (A) (A) (A) (A) (A)
                 (A) (A) (A) (A) (A) (A) (A) (A) (A) (A) (A) (A)
                 (A) (A) (A) (A) (A) (A) (A) (A) (A) (A) (A) (A)
                 (A) (A) (A) (A) (A) (A) (A) (A) (A) (A) (A) (A)
                 (A) (A) (A) (A) (A) (A) (A) (A) (A) (A) (A) (A)
                 (A) (A) (A) (A) (A) (A) (A) (A) (A) (A) (A) (A)
                 (A) (A) (A) (A) (A) (A) (A) (A) (A) (A) (A) (A)
                 (A) (A) (A) (A) (A) (A) (A) (A) (A) (A) (A) (A)
                 (A) (A) (A) (A) (A) (A) (A) (A) (A) (A) (A) (A)
                 (A) (A) (A) (A) (A) (A) (A) (A) (A) (A) (A) (A)
                 (A) (A) (A) (A) (A) (A) (A) (A) (A) (A) (A) (A)
                 (A) (A) (A) (A) (A) (A) (A) (A) (A) (A) (A) (A)
                 (A) (A) (A) (A) (A) (A) (A) (A) (A) (A) (A) (A)
                 (A) (A) (A) (A) (A) (A) (A) (A) (A) (A) (A) (A)
                 (A) (A) (A) (A) (A) (A) (A) (A) (A) (A) (A) (A)
                 (A) (A) (A) (A) (A) (A) (A) (A) (A) (A) (A) (A)
                 (A) (A) (A) (A) (A) (A) (A) (A) (A) (A) (A) (A)
                 (A) (A) (A) (A) (A) (A) (A) (A) (A) (A)
 The electronic state is 1-A.
 Alpha  occ. eigenvalues --  -19.78187 -19.75260 -19.71917 -19.71431 -19.71355
 Alpha  occ. eigenvalues --  -19.69604 -19.68133 -19.67422 -19.67400 -10.73254
 Alpha  occ. eigenvalues --  -10.66299 -10.66285 -10.65984 -10.65582 -10.64981
 Alpha  occ. eigenvalues --  -10.64438 -10.64297 -10.63085 -10.63007  -1.31471
 Alpha  occ. eigenvalues --   -1.29574  -1.24502  -1.23737  -1.23245  -1.21619
 Alpha  occ. eigenvalues --   -1.21216  -1.20345  -1.20233  -0.95470  -0.93477
 Alpha  occ. eigenvalues --   -0.93142  -0.87530  -0.85161  -0.81004  -0.80970
 Alpha  occ. eigenvalues --   -0.79172  -0.77619  -0.75860  -0.74742  -0.71875
 Alpha  occ. eigenvalues --   -0.71193  -0.69526  -0.66937  -0.65723  -0.64971
 Alpha  occ. eigenvalues --   -0.64703  -0.62378  -0.61146  -0.60854  -0.60220
 Alpha  occ. eigenvalues --   -0.60083  -0.60003  -0.59073  -0.58429  -0.58319
 Alpha  occ. eigenvalues --   -0.56870  -0.55910  -0.55173  -0.54021  -0.52879
 Alpha  occ. eigenvalues --   -0.52489  -0.51609  -0.51083  -0.50092  -0.49199
 Alpha  occ. eigenvalues --   -0.48605  -0.47725  -0.47626  -0.46636  -0.44768
 Alpha  occ. eigenvalues --   -0.43617  -0.43454  -0.43167  -0.42041  -0.41780
 Alpha  occ. eigenvalues --   -0.38363  -0.37000
 Alpha virt. eigenvalues --   -0.06564  -0.04841  -0.04148  -0.03853  -0.02793
 Alpha virt. eigenvalues --   -0.02366  -0.02189  -0.01520  -0.01327  -0.01038
 Alpha virt. eigenvalues --   -0.00681  -0.00554   0.00012   0.00539   0.00802
 Alpha virt. eigenvalues --    0.01323   0.01496   0.01970   0.02327   0.02472
 Alpha virt. eigenvalues --    0.03643   0.03736   0.03878   0.04246   0.04472
 Alpha virt. eigenvalues --    0.04850   0.05262   0.05898   0.06050   0.06560
 Alpha virt. eigenvalues --    0.06835   0.07087   0.07351   0.07505   0.07832
 Alpha virt. eigenvalues --    0.08508   0.08668   0.08713   0.09089   0.09237
 Alpha virt. eigenvalues --    0.09501   0.09745   0.10153   0.10252   0.10431
 Alpha virt. eigenvalues --    0.10804   0.11001   0.11109   0.11287   0.11547
 Alpha virt. eigenvalues --    0.11890   0.12139   0.12269   0.12553   0.12880
 Alpha virt. eigenvalues --    0.12986   0.13436   0.14073   0.14371   0.14442
 Alpha virt. eigenvalues --    0.14565   0.15055   0.15183   0.15458   0.15598
 Alpha virt. eigenvalues --    0.16655   0.17108   0.17291   0.17779   0.17984
 Alpha virt. eigenvalues --    0.18165   0.19063   0.19384   0.19701   0.19955
 Alpha virt. eigenvalues --    0.20215   0.20599   0.20878   0.21213   0.21321
 Alpha virt. eigenvalues --    0.21847   0.22023   0.22722   0.22830   0.23291
 Alpha virt. eigenvalues --    0.23532   0.24047   0.24165   0.24607   0.24793
 Alpha virt. eigenvalues --    0.25398   0.25653   0.26074   0.26275   0.26643
 Alpha virt. eigenvalues --    0.27020   0.27156   0.27522   0.27602   0.28180
 Alpha virt. eigenvalues --    0.28762   0.29084   0.29146   0.29418   0.30195
 Alpha virt. eigenvalues --    0.30345   0.30570   0.30757   0.30852   0.31172
 Alpha virt. eigenvalues --    0.31404   0.31609   0.31945   0.32128   0.32718
 Alpha virt. eigenvalues --    0.32766   0.33168   0.33988   0.34082   0.34370
 Alpha virt. eigenvalues --    0.34552   0.35053   0.35620   0.35698   0.36349
 Alpha virt. eigenvalues --    0.36537   0.36693   0.37071   0.37774   0.38546
 Alpha virt. eigenvalues --    0.40000   0.40613   0.41438   0.42112   0.42866
 Alpha virt. eigenvalues --    0.43904   0.45436   0.45772   0.47075   0.47708
 Alpha virt. eigenvalues --    0.48693   0.49069   0.50200   0.50722   0.52620
 Alpha virt. eigenvalues --    0.52853   0.53400   0.55222   0.55566   0.55933
 Alpha virt. eigenvalues --    0.56472   0.56971   0.57551   0.57916   0.58441
 Alpha virt. eigenvalues --    0.58866   0.59466   0.60721   0.61098   0.61535
 Alpha virt. eigenvalues --    0.62031   0.62896   0.63465   0.64377   0.64753
 Alpha virt. eigenvalues --    0.65063   0.65450   0.66478   0.66910   0.67672
 Alpha virt. eigenvalues --    0.68298   0.68846   0.69766   0.69847   0.70190
 Alpha virt. eigenvalues --    0.70513   0.70697   0.71728   0.72064   0.72596
 Alpha virt. eigenvalues --    0.74082   0.74635   0.75048   0.75485   0.75679
 Alpha virt. eigenvalues --    0.76274   0.76798   0.77874   0.78612   0.79241
 Alpha virt. eigenvalues --    0.81445   0.82855   0.88466   0.89707   0.91597
 Alpha virt. eigenvalues --    0.91755   0.93910   0.94818   0.98754   0.98859
 Alpha virt. eigenvalues --    0.99808   1.01422   1.02220   1.02639   1.04208
 Alpha virt. eigenvalues --    1.04471   1.04899   1.05585   1.06413   1.07177
 Alpha virt. eigenvalues --    1.08537   1.10043   1.10492   1.11394   1.13224
 Alpha virt. eigenvalues --    1.14246   1.14751   1.16995   1.17503   1.18287
 Alpha virt. eigenvalues --    1.19384   1.20189   1.21000   1.21276   1.22537
 Alpha virt. eigenvalues --    1.23229   1.24134   1.24431   1.25242   1.26194
 Alpha virt. eigenvalues --    1.26910   1.28301   1.29344   1.29566   1.30901
 Alpha virt. eigenvalues --    1.32493   1.33545   1.34544   1.34770   1.36823
 Alpha virt. eigenvalues --    1.37255   1.38070   1.38769   1.39499   1.40547
 Alpha virt. eigenvalues --    1.42929   1.43427   1.45678   1.46441   1.47853
 Alpha virt. eigenvalues --    1.48596   1.49073   1.50220   1.51539   1.51799
 Alpha virt. eigenvalues --    1.52322   1.53296   1.54252   1.55001   1.55194
 Alpha virt. eigenvalues --    1.56970   1.57824   1.57916   1.58510   1.59670
 Alpha virt. eigenvalues --    1.59802   1.60405   1.60647   1.61464   1.61901
 Alpha virt. eigenvalues --    1.62601   1.62837   1.64401   1.65246   1.65499
 Alpha virt. eigenvalues --    1.66139   1.66986   1.67447   1.68489   1.69450
 Alpha virt. eigenvalues --    1.69530   1.70036   1.71555   1.71919   1.72145
 Alpha virt. eigenvalues --    1.73047   1.73455   1.73683   1.75262   1.76766
 Alpha virt. eigenvalues --    1.76958   1.77954   1.78340   1.79696   1.80950
 Alpha virt. eigenvalues --    1.82376   1.82607   1.83453   1.84711   1.85208
 Alpha virt. eigenvalues --    1.87408   1.88075   1.88781   1.90557   1.91160
 Alpha virt. eigenvalues --    1.92041   1.92925   1.95370   1.96623   1.97672
 Alpha virt. eigenvalues --    1.97811   1.99051   2.00963   2.01539   2.02858
 Alpha virt. eigenvalues --    2.04140   2.04647   2.06592   2.07209   2.08237
 Alpha virt. eigenvalues --    2.09515   2.09947   2.11286   2.12318   2.12750
 Alpha virt. eigenvalues --    2.13747   2.14431   2.15354   2.16463   2.18238
 Alpha virt. eigenvalues --    2.20226   2.20415   2.22275   2.22540   2.24296
 Alpha virt. eigenvalues --    2.27197   2.27696   2.28746   2.29182   2.32016
 Alpha virt. eigenvalues --    2.32383   2.37031   2.40355   2.43117   2.47915
 Alpha virt. eigenvalues --    2.48061   2.49270   2.50119   2.50800   2.51951
 Alpha virt. eigenvalues --    2.52534   2.53223   2.54714   2.55705   2.57385
 Alpha virt. eigenvalues --    2.58351   2.59898   2.60236   2.61989   2.62407
 Alpha virt. eigenvalues --    2.63237   2.64809   2.65186   2.67388   2.67534
 Alpha virt. eigenvalues --    2.69042   2.71671   2.73115   2.75559   2.76939
 Alpha virt. eigenvalues --    2.78120   2.79479   2.82253   2.82668   2.83412
 Alpha virt. eigenvalues --    2.84857   2.86628   2.87009   2.88041   2.89754
 Alpha virt. eigenvalues --    2.90072   2.91252   2.92547   2.93036   2.94341
 Alpha virt. eigenvalues --    2.97258   2.97530   2.98662   3.00171   3.02012
 Alpha virt. eigenvalues --    3.02350   3.02564   3.03120   3.07084   3.07772
 Alpha virt. eigenvalues --    3.09995   3.11478   3.11697   3.13113   3.13734
 Alpha virt. eigenvalues --    3.15507   3.17308   3.17417   3.18379   3.19483
 Alpha virt. eigenvalues --    3.20227   3.22264   3.23846   3.24489   3.24867
 Alpha virt. eigenvalues --    3.25087   3.26871   3.27990   3.29888   3.30703
 Alpha virt. eigenvalues --    3.31487   3.32958   3.33829   3.36205   3.36432
 Alpha virt. eigenvalues --    3.38449   3.38822   3.43377   3.51442   3.57072
 Alpha virt. eigenvalues --    3.67937   3.76682   3.76965   3.79495   3.80415
 Alpha virt. eigenvalues --    3.81811   3.82738   3.84280   3.84389   3.86154
 Alpha virt. eigenvalues --    3.86993   3.88071   3.92114   3.92423   3.95151
 Alpha virt. eigenvalues --    3.97449   3.98090   4.01374   4.01955   4.04032
 Alpha virt. eigenvalues --    4.05893   4.08838   4.09040   4.10572   4.16033
 Alpha virt. eigenvalues --    4.18370   4.20774   4.22524   4.26132   4.32154
 Alpha virt. eigenvalues --    4.38208   5.06846   5.13393   5.17236   5.17608
 Alpha virt. eigenvalues --    5.19365   5.20375   5.20673   5.26074   5.27427
 Alpha virt. eigenvalues --    5.34850   5.46208   5.46296   5.49079   5.51305
 Alpha virt. eigenvalues --    5.51809   5.54176   5.55186   5.60706   5.63732
 Alpha virt. eigenvalues --    5.65028   5.67206   5.72042   5.72865   5.74257
 Alpha virt. eigenvalues --    5.75207   5.83849   5.86787  23.72982  23.82599
 Alpha virt. eigenvalues --   23.86050  23.86926  23.88456  23.89895  23.90933
 Alpha virt. eigenvalues --   23.93813  23.94420  23.95153  49.89162  49.95249
 Alpha virt. eigenvalues --   49.96377  49.97649  50.00178  50.00405  50.02023
 Alpha virt. eigenvalues --   50.06194  50.08416
          Condensed to atoms (all electrons):
               1          2          3          4          5          6
     1  C   12.006034  -5.056317   2.716937  -3.807878   0.264973  -1.622525
     2  C   -5.056317  12.948735  -4.694949   3.982733  -0.146344   0.699411
     3  C    2.716937  -4.694949  13.088134  -5.864306   0.146014  -0.094874
     4  C   -3.807878   3.982733  -5.864306  16.235788   0.033187   0.378442
     5  O    0.264973  -0.146344   0.146014   0.033187   8.073972  -0.087569
     6  C   -1.622525   0.699411  -0.094874   0.378442  -0.087569   6.420306
     7  C    0.826668  -1.363320   0.756228  -4.484133  -0.171475  -0.118983
     8  O   -0.075002   0.003372   0.050907  -0.043554   0.023784   0.128191
     9  O   -0.315595   0.606423  -0.208746   0.009815   0.008036   0.031008
    10  O    0.067935  -0.039116  -0.158478  -0.082439  -0.052958   0.003449
    11  O    0.016618  -0.145096   0.351142  -0.095814  -0.023291  -0.022026
    12  O    0.003715  -0.016522   0.021814  -0.258937  -0.024910  -0.011899
    13  H   -0.087475   0.040037  -0.045976   0.047019  -0.025422   0.398247
    14  H    0.008578  -0.040632   0.055570  -0.064378   0.024795   0.430944
    15  H   -0.072194   0.016086   0.005058   0.006931   0.002545   0.074091
    16  H    0.578570  -0.185340   0.020516  -0.049318  -0.052366  -0.076869
    17  H    0.078716   0.225267   0.036720  -0.059410  -0.011276   0.004250
    18  H    0.096669  -0.115300   0.097590  -0.103835  -0.001437   0.004590
    19  H    0.013069  -0.093986   0.323236   0.111926   0.024582   0.018830
    20  H    0.138278  -0.059838   0.043651  -0.040321   0.011296  -0.041620
    21  H    0.081829  -0.088597   0.145411  -0.127190   0.021765  -0.016125
    22  H    0.022375  -0.053785   0.099859  -0.142879   0.022302   0.001661
    23  H   -0.012419   0.036744  -0.193795   0.124738  -0.034968  -0.013508
    24  H    0.018836  -0.005790   0.032660   0.009352   0.017095   0.000556
    25  H   -0.107592   0.142764  -0.167538   0.301286  -0.016864   0.006666
    26  O    0.003890  -0.014104  -0.043893   0.084975  -0.008366   0.000307
    27  H    0.013203  -0.010961   0.014471  -0.013424  -0.000058  -0.005111
    28  H   -0.072832   0.063234  -0.059524   0.049877  -0.012990   0.012278
    29  C    0.000792  -0.001563   0.001069  -0.002836   0.000347  -0.000115
    30  C    0.002515  -0.001417   0.000774  -0.002626  -0.000106  -0.000378
    31  C   -0.000340  -0.000153   0.000047  -0.001766   0.000086   0.000092
    32  C    0.003251  -0.003236   0.003338   0.000084   0.000176  -0.000473
    33  H   -0.000184   0.000016  -0.000067  -0.000358   0.000039   0.000198
    34  H    0.000098   0.000019   0.000043   0.000404  -0.000019  -0.000101
    35  H   -0.000610   0.000170  -0.000247   0.000892   0.000052   0.000007
    36  H    0.000565  -0.000679   0.000890  -0.000813  -0.000120   0.001100
    37  H    0.000074  -0.000088   0.000126   0.000128  -0.000005  -0.000010
    38  H   -0.000017   0.000016  -0.000033  -0.000069   0.000003  -0.000000
    39  H    0.000092  -0.000033  -0.000006   0.001078   0.000039  -0.000062
    40  H    0.000233  -0.000121   0.000101  -0.000343   0.000020   0.000008
    41  O    0.000942   0.000030  -0.000572  -0.006395  -0.000167  -0.000359
    42  O   -0.000001  -0.000001  -0.000000  -0.000001  -0.000000   0.000003
               7          8          9         10         11         12
     1  C    0.826668  -0.075002  -0.315595   0.067935   0.016618   0.003715
     2  C   -1.363320   0.003372   0.606423  -0.039116  -0.145096  -0.016522
     3  C    0.756228   0.050907  -0.208746  -0.158478   0.351142   0.021814
     4  C   -4.484133  -0.043554   0.009815  -0.082439  -0.095814  -0.258937
     5  O   -0.171475   0.023784   0.008036  -0.052958  -0.023291  -0.024910
     6  C   -0.118983   0.128191   0.031008   0.003449  -0.022026  -0.011899
     7  C   10.297620  -0.005825   0.049340  -0.058478   0.035478   0.188699
     8  O   -0.005825   8.242831   0.005874   0.002740  -0.005422  -0.001029
     9  O    0.049340   0.005874   7.798903   0.008006   0.016839  -0.000830
    10  O   -0.058478   0.002740   0.008006   8.358362   0.019553   0.062086
    11  O    0.035478  -0.005422   0.016839   0.019553   7.777871   0.001624
    12  O    0.188699  -0.001029  -0.000830   0.062086   0.001624   8.127593
    13  H    0.001219  -0.054552   0.001117   0.003598   0.005862   0.000622
    14  H    0.000458  -0.071717  -0.003505  -0.001973  -0.004462  -0.000533
    15  H   -0.005829   0.193765  -0.000124   0.000022  -0.001017   0.000076
    16  H    0.017880   0.010130  -0.014327   0.009579   0.001715   0.001306
    17  H    0.013355   0.007409  -0.070147   0.006218   0.000952   0.001132
    18  H    0.003651  -0.000604   0.251076   0.009604  -0.002604   0.000085
    19  H   -0.149857   0.000856  -0.003512   0.011196  -0.066090  -0.005849
    20  H   -0.035212  -0.042313   0.001551  -0.001027   0.280126  -0.002331
    21  H   -0.052131  -0.001413  -0.006593   0.063317  -0.000352  -0.003872
    22  H    0.453318   0.000224   0.002515  -0.014045  -0.015779  -0.074314
    23  H    0.368392   0.000599  -0.002442   0.020521   0.046901   0.020361
    24  H   -0.055287  -0.000242  -0.000200  -0.001293  -0.001753   0.255002
    25  H   -0.092274   0.000513  -0.008320   0.213701   0.003415   0.006694
    26  O    0.010176   0.000006   0.002977  -0.039769   0.000427  -0.008625
    27  H    0.020845  -0.000530   0.000477  -0.000359   0.000817   0.034798
    28  H    0.023433   0.000746  -0.001253   0.016069  -0.000511  -0.005969
    29  C   -0.000669  -0.000010   0.000048   0.001071   0.000004   0.000133
    30  C    0.001159  -0.000006   0.000008  -0.000604   0.000001   0.000313
    31  C    0.001157   0.000001   0.000004   0.000289  -0.000001  -0.000331
    32  C    0.000236  -0.000007   0.000049  -0.001090   0.000007  -0.001133
    33  H    0.000362   0.000002   0.000003   0.000105  -0.000000  -0.000044
    34  H   -0.000283  -0.000000  -0.000000  -0.000049   0.000000   0.000035
    35  H    0.000746   0.000002   0.000011  -0.000004   0.000003  -0.000706
    36  H   -0.000661   0.000004  -0.000080  -0.000394  -0.000030   0.000667
    37  H   -0.000020  -0.000000  -0.000003  -0.000073   0.000000   0.000047
    38  H    0.000014   0.000000   0.000000   0.000019  -0.000000  -0.000014
    39  H   -0.000003  -0.000000   0.000044  -0.000758   0.000001  -0.000220
    40  H   -0.000265  -0.000001  -0.000006  -0.000021  -0.000000   0.000278
    41  O    0.003229  -0.000003   0.000009  -0.000513   0.000001   0.000107
    42  O    0.000021   0.000000  -0.000000   0.000006   0.000000  -0.000003
              13         14         15         16         17         18
     1  C   -0.087475   0.008578  -0.072194   0.578570   0.078716   0.096669
     2  C    0.040037  -0.040632   0.016086  -0.185340   0.225267  -0.115300
     3  C   -0.045976   0.055570   0.005058   0.020516   0.036720   0.097590
     4  C    0.047019  -0.064378   0.006931  -0.049318  -0.059410  -0.103835
     5  O   -0.025422   0.024795   0.002545  -0.052366  -0.011276  -0.001437
     6  C    0.398247   0.430944   0.074091  -0.076869   0.004250   0.004590
     7  C    0.001219   0.000458  -0.005829   0.017880   0.013355   0.003651
     8  O   -0.054552  -0.071717   0.193765   0.010130   0.007409  -0.000604
     9  O    0.001117  -0.003505  -0.000124  -0.014327  -0.070147   0.251076
    10  O    0.003598  -0.001973   0.000022   0.009579   0.006218   0.009604
    11  O    0.005862  -0.004462  -0.001017   0.001715   0.000952  -0.002604
    12  O    0.000622  -0.000533   0.000076   0.001306   0.001132   0.000085
    13  H    0.570377  -0.068403   0.003739   0.000953   0.000787  -0.001296
    14  H   -0.068403   0.538788  -0.010530  -0.011684  -0.007025   0.001758
    15  H    0.003739  -0.010530   0.434181  -0.001125  -0.001796   0.000027
    16  H    0.000953  -0.011684  -0.001125   0.459107   0.008118  -0.000733
    17  H    0.000787  -0.007025  -0.001796   0.008118   0.465895   0.024167
    18  H   -0.001296   0.001758   0.000027  -0.000733   0.024167   0.462004
    19  H   -0.000758   0.001487   0.000850  -0.000978  -0.019712  -0.002998
    20  H   -0.004849   0.003940   0.004625   0.002962  -0.019496  -0.001767
    21  H   -0.000223  -0.000425   0.000225   0.008958   0.000318   0.000108
    22  H   -0.000190   0.000368   0.000087  -0.000482  -0.001634  -0.000180
    23  H    0.001186  -0.001349  -0.001329   0.000606   0.002618   0.000501
    24  H   -0.000056   0.000061   0.000135   0.000405   0.000108  -0.000098
    25  H    0.000684  -0.000743  -0.000015  -0.003916   0.001540  -0.004270
    26  O    0.000885  -0.000226  -0.000014  -0.005257  -0.001057   0.001631
    27  H   -0.000165  -0.000192  -0.000017   0.002309   0.000162   0.000887
    28  H    0.000127   0.000498  -0.000031  -0.005248   0.000090  -0.003923
    29  C    0.000570  -0.000105  -0.000001  -0.000962  -0.000005   0.000121
    30  C   -0.000181  -0.000002   0.000001   0.000894  -0.000002  -0.000024
    31  C    0.000033   0.000003   0.000000  -0.000056  -0.000004  -0.000066
    32  C   -0.000028  -0.000021   0.000000   0.000683   0.000000   0.000318
    33  H    0.000052   0.000006  -0.000000  -0.000454  -0.000003  -0.000020
    34  H   -0.000008  -0.000005   0.000000   0.000087   0.000001   0.000004
    35  H    0.000086  -0.000008  -0.000001  -0.000143  -0.000009   0.000007
    36  H   -0.001002   0.000233   0.000008  -0.000522   0.000036   0.000129
    37  H   -0.000004  -0.000001   0.000000  -0.000030   0.000002  -0.000023
    38  H    0.000001   0.000000  -0.000000   0.000013  -0.000000   0.000000
    39  H    0.000003   0.000000  -0.000001  -0.000041  -0.000011   0.000028
    40  H   -0.000010   0.000001   0.000000   0.000014   0.000002   0.000019
    41  O   -0.000035  -0.000012   0.000000   0.000598  -0.000002   0.000053
    42  O    0.000001   0.000000  -0.000000  -0.000023   0.000000  -0.000000
              19         20         21         22         23         24
     1  C    0.013069   0.138278   0.081829   0.022375  -0.012419   0.018836
     2  C   -0.093986  -0.059838  -0.088597  -0.053785   0.036744  -0.005790
     3  C    0.323236   0.043651   0.145411   0.099859  -0.193795   0.032660
     4  C    0.111926  -0.040321  -0.127190  -0.142879   0.124738   0.009352
     5  O    0.024582   0.011296   0.021765   0.022302  -0.034968   0.017095
     6  C    0.018830  -0.041620  -0.016125   0.001661  -0.013508   0.000556
     7  C   -0.149857  -0.035212  -0.052131   0.453318   0.368392  -0.055287
     8  O    0.000856  -0.042313  -0.001413   0.000224   0.000599  -0.000242
     9  O   -0.003512   0.001551  -0.006593   0.002515  -0.002442  -0.000200
    10  O    0.011196  -0.001027   0.063317  -0.014045   0.020521  -0.001293
    11  O   -0.066090   0.280126  -0.000352  -0.015779   0.046901  -0.001753
    12  O   -0.005849  -0.002331  -0.003872  -0.074314   0.020361   0.255002
    13  H   -0.000758  -0.004849  -0.000223  -0.000190   0.001186  -0.000056
    14  H    0.001487   0.003940  -0.000425   0.000368  -0.001349   0.000061
    15  H    0.000850   0.004625   0.000225   0.000087  -0.001329   0.000135
    16  H   -0.000978   0.002962   0.008958  -0.000482   0.000606   0.000405
    17  H   -0.019712  -0.019496   0.000318  -0.001634   0.002618   0.000108
    18  H   -0.002998  -0.001767   0.000108  -0.000180   0.000501  -0.000098
    19  H    0.522962   0.024265   0.010363   0.011670  -0.011845   0.001803
    20  H    0.024265   0.419401   0.001699   0.002118  -0.009038   0.000676
    21  H    0.010363   0.001699   0.474192   0.015492  -0.008403   0.005766
    22  H    0.011670   0.002118   0.015492   0.453385  -0.039117   0.015495
    23  H   -0.011845  -0.009038  -0.008403  -0.039117   0.475001  -0.030033
    24  H    0.001803   0.000676   0.005766   0.015495  -0.030033   0.429033
    25  H   -0.017564  -0.003174  -0.050853  -0.017394   0.008164  -0.002385
    26  O   -0.001012  -0.000009   0.095953   0.001515  -0.000539  -0.003682
    27  H   -0.001729   0.000077   0.013926  -0.005414   0.002895  -0.009221
    28  H    0.000678  -0.000288  -0.154514  -0.007487   0.002964  -0.002113
    29  C   -0.000006   0.000002   0.008490   0.000323  -0.000183   0.000485
    30  C    0.000006   0.000004   0.013292   0.000034  -0.000024  -0.000040
    31  C    0.000045  -0.000002   0.004181   0.000164  -0.000062   0.000084
    32  C   -0.000096   0.000007   0.019732   0.000166  -0.000073  -0.000417
    33  H    0.000005  -0.000001  -0.000611   0.000016  -0.000008   0.000009
    34  H   -0.000001   0.000001   0.000298  -0.000007   0.000003   0.000009
    35  H   -0.000007   0.000001  -0.003181   0.000014  -0.000010  -0.000191
    36  H    0.000039  -0.000022  -0.000570  -0.000036   0.000045  -0.000012
    37  H   -0.000002   0.000000   0.001030  -0.000006   0.000002   0.000005
    38  H   -0.000000   0.000000  -0.000381   0.000001   0.000000  -0.000004
    39  H    0.000018   0.000003  -0.003774   0.000116  -0.000043   0.000004
    40  H   -0.000012  -0.000001  -0.001374   0.000014   0.000001   0.000055
    41  O   -0.000065   0.000002  -0.016267   0.000084   0.000000   0.000194
    42  O   -0.000000  -0.000000  -0.000547   0.000000  -0.000000   0.000001
              25         26         27         28         29         30
     1  C   -0.107592   0.003890   0.013203  -0.072832   0.000792   0.002515
     2  C    0.142764  -0.014104  -0.010961   0.063234  -0.001563  -0.001417
     3  C   -0.167538  -0.043893   0.014471  -0.059524   0.001069   0.000774
     4  C    0.301286   0.084975  -0.013424   0.049877  -0.002836  -0.002626
     5  O   -0.016864  -0.008366  -0.000058  -0.012990   0.000347  -0.000106
     6  C    0.006666   0.000307  -0.005111   0.012278  -0.000115  -0.000378
     7  C   -0.092274   0.010176   0.020845   0.023433  -0.000669   0.001159
     8  O    0.000513   0.000006  -0.000530   0.000746  -0.000010  -0.000006
     9  O   -0.008320   0.002977   0.000477  -0.001253   0.000048   0.000008
    10  O    0.213701  -0.039769  -0.000359   0.016069   0.001071  -0.000604
    11  O    0.003415   0.000427   0.000817  -0.000511   0.000004   0.000001
    12  O    0.006694  -0.008625   0.034798  -0.005969   0.000133   0.000313
    13  H    0.000684   0.000885  -0.000165   0.000127   0.000570  -0.000181
    14  H   -0.000743  -0.000226  -0.000192   0.000498  -0.000105  -0.000002
    15  H   -0.000015  -0.000014  -0.000017  -0.000031  -0.000001   0.000001
    16  H   -0.003916  -0.005257   0.002309  -0.005248  -0.000962   0.000894
    17  H    0.001540  -0.001057   0.000162   0.000090  -0.000005  -0.000002
    18  H   -0.004270   0.001631   0.000887  -0.003923   0.000121  -0.000024
    19  H   -0.017564  -0.001012  -0.001729   0.000678  -0.000006   0.000006
    20  H   -0.003174  -0.000009   0.000077  -0.000288   0.000002   0.000004
    21  H   -0.050853   0.095953   0.013926  -0.154514   0.008490   0.013292
    22  H   -0.017394   0.001515  -0.005414  -0.007487   0.000323   0.000034
    23  H    0.008164  -0.000539   0.002895   0.002964  -0.000183  -0.000024
    24  H   -0.002385  -0.003682  -0.009221  -0.002113   0.000485  -0.000040
    25  H    0.436311   0.014186  -0.001341   0.011073  -0.000331  -0.000383
    26  O    0.014186   8.154380   0.272678  -0.001424   0.000860   0.004488
    27  H   -0.001341   0.272678   0.341041  -0.030118   0.003909  -0.001610
    28  H    0.011073  -0.001424  -0.030118   0.746138  -0.029000  -0.054961
    29  C   -0.000331   0.000860   0.003909  -0.029000   5.924922  -0.272880
    30  C   -0.000383   0.004488  -0.001610  -0.054961  -0.272880   6.111168
    31  C   -0.000549  -0.004343  -0.004921   0.012028   0.261723  -0.446457
    32  C   -0.000985   0.005683   0.017493  -0.119139  -0.337154   0.269585
    33  H   -0.000014  -0.000442  -0.000528   0.007377  -0.064916   0.355756
    34  H   -0.000002   0.000162   0.000304  -0.001761   0.005911   0.383991
    35  H    0.000053  -0.006282   0.001783   0.013903   0.446053  -0.094871
    36  H   -0.000010   0.005784  -0.003446   0.005977   0.367610   0.009893
    37  H   -0.000032  -0.001016   0.000076   0.001433  -0.019203  -0.017432
[...]
 000536,-0.00000137,-0.00000177,0.00000081,-0.00000124,-0.00000531,-0.0
 0000607,0.00000060,-0.00000055,0.00000198,0.00000070,-0.00000026,0.000
 00015,-0.00000107,0.00000032,0.00000049,0.00000159,0.00000203,-0.00000
 152,-0.00000029,-0.00000012,0.00000030,0.00000513,-0.00000152,-0.00000
 145,0.00000069,-0.00000020,0.00000037,-0.00000044,0.00000237,-0.000000
 47,0.00000091,0.00000076,-0.00000885,0.00000035,-0.00000039,0.00000025
 ,0.00000042,0.00000010,0.00000069,-0.00000230,0.00000703,0.00000435,0.
 00000087,-0.00000116,0.00000087,0.00004993,-0.00009543,-0.00000746,0.0
 0000480,0.00001071,0.00000980,-0.00004680,0.00025105,0.00003051,0.0000
 2181,0.00050124,-0.00015121,-0.00118898,0.00248673,-0.00300721,-0.0136
 7588,-0.00625844,-0.04944804,0.00872214,0.00101471,-0.00076854,0.00032
 631,0.00024339,0.00031555,0.00107412,0.00047816,0.00015749,-0.00001960
 ,-0.00004691,0.00000334,0.00004983,-0.00014471,0.00000984,-0.02639644,
 -0.00772841,0.00187107,0.00244073,-0.00424466,0.05303225,0.00000198,-0
 .00001027,-0.00000255,0.00000395,-0.00000560,0.00001605,-0.00001662,0.
 00000082,-0.00000894,-0.00002551,-0.00008725,0.00007447,-0.00002829,0.
 00007522,-0.00001190,0.00002198,-0.00000926,0.00000696,-0.00001829,0.0
 0000618,-0.00002311,-0.00001636,0.00001004,-0.00000230,0.00000647,0.00
 001220,-0.00001218,0.00009831,0.00004895,-0.00003183,0.00001408,0.0000
 1326,-0.00000878,0.00009598,0.00003104,-0.00010070,-0.00000141,0.00000
 645,-0.00000746,-0.00000338,0.00000159,-0.00000219,0.00000356,0.000001
 05,0.00000144,0.00000156,0.00000059,0.00000867,-0.00000014,0.00000238,
 -0.00000104,-0.00000844,-0.00001148,0.00000151,-0.00000341,0.00000236,
 -0.00000174,0.00000265,-0.00001124,0.00000424,-0.00018802,-0.00004209,
 -0.00002067,-0.00000415,0.00000410,0.00000329,0.00000627,-0.00000163,0
 .00000128,0.00003345,-0.00003425,0.00000358,-0.00001591,-0.00000244,-0
 .00000271,0.00019516,-0.00001459,-0.00039248,-0.00014259,-0.00001683,0
 .00029083,0.00050322,-0.00077445,0.00083616,-0.00601520,0.00025805,-0.
 00199935,-0.00243077,-0.00078220,0.00049830,0.00472414,0.00901411,-0.0
 1724774,-0.05040255,0.01563199,-0.01303067,0.00032340,0.00007038,-0.00
 002830,0.00034977,-0.00000053,-0.00009663,0.00002701,0.00000439,0.0002
 3705,0.00001697,-0.00147486,0.00114187,0.00066140,-0.00047555,0.000634
 92,0.00000531,-0.00078058,-0.00017989,0.06110460,0.00000197,0.00001955
 ,0.00001153,-0.00000636,-0.00000159,0.00002313,0.00000339,0.00000174,-
 0.00000054,0.00000226,-0.00001277,0.00002056,-0.00002760,-0.00000066,-
 0.00001580,0.00001269,-0.00000702,0.00000529,0.00002955,0.00000189,0.0
 0001356,-0.00001104,0.00000210,-0.00000469,0.00001083,-0.00000225,-0.0
 0002835,-0.00002304,-0.00000818,-0.00005270,-0.00000477,-0.00000282,-0
 .00000762,-0.00005149,-0.00000039,0.00001630,-0.00000094,0.00000277,-0
 .00000468,-0.00000240,-0.00000135,-0.00000069,0.00000449,0.00000115,0.
 00000142,0.00000032,-0.00000459,0.00000492,0.00000030,-0.00000062,-0.0
 0000208,-0.00001189,0.00000411,0.00001522,-0.00000174,0.00000114,-0.00
 000009,0.00000400,-0.00000035,0.00000336,-0.00001428,0.00005380,0.0001
 1261,0.00000048,0.00000106,-0.00000130,-0.00000282,-0.00000164,-0.0000
 0248,0.00000924,-0.00000535,-0.00000495,-0.00000072,0.00000450,0.00001
 422,-0.00053602,0.00028707,-0.00002688,0.00002649,0.00001306,-0.000054
 68,0.00050001,-0.00033051,0.00037451,-0.00163817,0.00106011,-0.0015753
 4,0.00095204,0.00077086,0.00004535,-0.00154488,-0.01266556,0.01779337,
 0.00484647,-0.18465316,0.13519464,-0.00014079,-0.00006937,-0.00004594,
 -0.00004218,-0.00002939,-0.00002506,-0.00000947,-0.00005243,0.00020057
 ,0.00012419,-0.00023412,0.00042929,-0.00075941,0.00052936,-0.00036460,
 0.00035872,0.00040244,-0.00016599,-0.00167641,0.19870403,-0.00000539,0
 .00001323,0.00000811,-0.00000771,0.00000202,0.00000274,0.00000498,0.00
 000045,0.00000540,0.00000267,0.00003999,-0.00001228,0.00001379,-0.0000
 4203,-0.00000430,-0.00001451,0.00000205,0.00000189,0.00001258,0.000002
 10,0.00001166,0.00001504,-0.00000603,-0.00000590,0.00000901,-0.0000090
 6,-0.00000718,-0.00003468,-0.00002587,-0.00001370,-0.00000078,-0.00000
 913,-0.00000337,-0.00003675,-0.00002225,0.00002135,0.00000141,-0.00000
 235,0.00000348,0.00000026,-0.00000130,0.00000123,-0.00000335,-0.000000
 67,0.00000030,-0.00000118,-0.00000381,-0.00000368,0.00000043,-0.000001
 06,-0.00000089,-0.00000824,0.00000883,0.00000598,0.00000122,-0.0000005
 7,0.00000114,-0.00000256,0.00000777,-0.00000058,0.00005715,0.00002351,
 0.00009166,0.00000384,-0.00000162,0.00000037,-0.00000236,0.,-0.0000012
 8,-0.00001705,0.00001915,-0.00000442,0.00000291,0.00000813,0.00000940,
 0.00015338,-0.00033684,-0.00014391,0.00010111,0.00000526,-0.00006886,0
 .00004158,0.00078688,-0.00001916,0.00021737,-0.00071090,0.00085265,0.0
 0024387,-0.00019628,-0.00007125,-0.00151645,-0.00653786,0.00674666,-0.
 00404141,0.14004721,-0.19811885,-0.00002859,0.00002589,-0.00001066,-0.
 00005440,-0.00002084,-0.00003246,-0.00004545,-0.00020354,0.00036789,-0
 .00007489,0.00024877,0.00018068,-0.00053381,0.00021188,0.00036867,-0.0
 0011789,0.00075211,0.00013104,0.00469040,-0.15103137,0.20566790,0.0000
 3111,0.00003124,0.00000596,0.00000390,-0.00000054,0.00001100,0.0000182
 8,0.00000602,-0.00000595,0.00006564,-0.00001875,-0.00005886,-0.0000818
 9,0.00000134,0.00002584,0.00001951,0.00000369,-0.00001067,0.00002504,-
 0.00001031,0.00000958,-0.00002478,-0.00000394,0.00001951,-0.00001426,0
 .00000067,-0.00001302,-0.00012425,-0.00000436,-0.00001299,-0.00002598,
 -0.00000373,0.00001540,-0.00011617,0.00002386,0.00017539,-0.00000088,0
 .00000400,-0.00000521,-0.00000373,-0.00000175,0.00000087,0.00000514,0.
 00000319,-0.00000357,0.00000708,0.00000816,0.00000665,-0.00000291,-0.0
 0000007,-0.00000127,0.00001395,0.00000017,0.00001321,-0.00000201,-0.00
 000051,0.00000026,0.00000650,0.00000073,-0.00000434,0.00020701,-0.0000
 3468,0.00011753,0.00000088,-0.00000168,-0.00000321,-0.00000567,0.00000
 063,-0.00000116,-0.00002432,-0.00001866,-0.00003801,0.00000098,-0.0000
 1569,0.00001894,-0.00126388,0.00114226,0.00025350,0.00012215,-0.000048
 25,-0.00042591,0.00206376,-0.00263309,-0.00048984,0.00079077,0.0032497
 4,-0.00403781,-0.00036640,-0.00023475,0.00054132,0.00616400,0.00943477
 ,0.02206695,-0.05823097,-0.02096660,-0.04630810,-0.00016973,0.00000119
 ,0.00009254,0.00023028,-0.00009561,-0.00006202,0.00043123,-0.00005572,
 0.00109835,0.00010613,0.00009766,0.00037502,-0.00229031,0.00430457,0.0
 0033709,0.00075727,-0.00081507,-0.00013453,0.00145145,0.00059122,-0.00
 102976,0.07865859,0.00000464,0.00000813,-0.00000041,-0.00000225,0.0000
 0128,-0.00000305,0.00000580,0.00000110,0.00000225,0.00001460,0.0000260
 9,-0.00002658,-0.00000425,-0.00002691,0.00001037,-0.00001061,0.0000047
 0,-0.00000642,0.00000677,-0.00000207,0.00000551,0.00000765,-0.00000517
 ,0.00000615,-0.00000273,-0.00000263,0.00000124,-0.00004981,-0.00001386
 ,-0.00000869,-0.00000444,-0.00000608,0.00000507,-0.00003434,-0.0000193
 8,0.00005470,0.00000122,-0.00000236,0.00000225,0.00000097,-0.00000074,
 0.00000150,-0.00000395,-0.00000041,-0.00000216,0.00000013,0.00000169,-
 0.00000154,-0.00000053,-0.00000021,-0.00000075,0.00000168,0.00000166,0
 .00000458,0.00000046,-0.00000085,0.00000113,-0.00000250,0.00000558,-0.
 00000363,0.00006230,-0.00000763,0.00009692,0.00000345,-0.00000150,0.00
 000071,-0.00000299,0.00000051,-0.00000113,-0.00002732,0.00001653,-0.00
 001545,-0.00000162,-0.00000192,0.00000857,-0.00043603,0.00024698,-0.00
 007388,0.00008899,0.00003622,-0.00013292,0.00068726,-0.00065445,0.0001
 7694,-0.00023800,0.00040433,-0.00286347,-0.00040071,-0.00041485,0.0001
 6321,-0.00362429,-0.00926985,-0.02381552,-0.02119031,-0.09780493,-0.08
 933231,0.00005939,0.00015476,0.00007099,0.00005149,-0.00005046,0.00002
 156,-0.00006124,-0.00003264,0.00058414,0.00006888,0.00006456,0.0002704
 1,0.00302684,-0.00285711,-0.00069729,-0.00008143,0.00075319,0.00051734
 ,0.00532168,0.01166194,0.01918381,0.03000320,0.10101676,0.00000279,-0.
 00001943,-0.00001373,0.00000775,0.00000055,-0.00001132,-0.00000377,0.0
 0000085,-0.00000293,0.00001292,-0.00001519,-0.00002459,-0.00000790,0.0
 0003013,0.00001872,0.00000883,0.00000105,-0.00000775,-0.00002897,-0.00
 000353,-0.00001893,-0.00000939,0.00000514,0.00001262,-0.00001228,0.000
 00676,0.00001748,-0.00000688,0.00001076,0.00002862,-0.00000047,0.00000
 784,0.00001064,0.00002784,0.00001895,0.00004502,-0.00000019,-0.0000006
 0,-0.00000307,0.00000138,0.00000151,0.00000055,-0.00000012,-0.00000081
 ,-0.00000288,0.00000203,0.00000422,0.00000305,-0.00000065,0.00000118,0
 .00000115,0.00001114,-0.00000756,-0.00000798,0.,-0.00000032,-0.0000002
 2,-0.00000021,-0.00000602,-0.00000257,0.00001461,0.00000643,-0.0000539
 0,-0.00000014,-0.00000048,0.00000014,0.00000179,-0.00000038,0.00000264
 ,-0.00001172,-0.00001431,-0.00000814,0.00000122,-0.00000766,-0.0000092
 9,-0.00030831,0.00022947,0.00005152,-0.00003369,-0.00004259,-0.0000760
 2,0.00040205,-0.00060780,-0.00014245,0.00089701,-0.00000503,0.00230764
 ,-0.00014188,0.00005931,-0.00012701,-0.00113180,-0.00136434,-0.0082578
 6,-0.05259110,-0.09357082,-0.26428224,0.00008405,0.00006529,-0.0002502
 2,-0.00006803,-0.00001956,0.00000190,-0.00032498,-0.00095147,0.0002355
 1,0.00001371,-0.00007349,0.00019020,0.00113140,-0.00085676,0.00099122,
 0.00031271,-0.00031479,0.00012928,-0.00351401,-0.00961207,-0.01631861,
 0.05697085,0.10283538,0.27726978,0.00049997,0.00108291,0.00042833,-0.0
 0011348,0.00003582,0.00019124,0.00065285,0.00004754,0.00002291,0.00117
 929,0.00105425,-0.00163935,-0.00230995,-0.00071389,-0.00072054,0.00017
 558,0.00004072,-0.00016143,0.00163874,-0.00032982,0.00096237,-0.000281
 99,-0.00023477,0.00024510,-0.00016789,-0.00020530,-0.00037903,-0.00418
 865,-0.00121553,-0.00079705,-0.00073829,-0.00033493,0.00025750,-0.0045
 3705,0.00012514,0.00373591,-0.00000657,0.00008147,-0.00002161,-0.00009
 216,-0.00006854,0.00001965,0.00009299,0.00007682,-0.00007063,0.0000485
 1,-0.00001682,-0.00002539,-0.00003717,-0.00004732,-0.00004724,0.000136
 48,0.00023848,0.00035109,-0.00000790,-0.00003426,0.00003295,0.00013264
 ,0.00022787,-0.00008386,0.00411735,0.00448929,0.00542100,0.00004587,-0
 .00009858,-0.00016721,-0.00026567,-0.00001034,-0.00009899,-0.00015127,
 0.00015231,-0.00066241,0.00023391,-0.00024849,0.00060779,-0.05933993,0
 .04807581,-0.00532132,0.00533717,0.00141654,-0.01063038,0.00047862,-0.
 02299009,0.01400384,-0.10024021,-0.01015224,0.01010264,0.00427386,0.02
 196690,-0.01983008,-0.05242081,-0.02201959,0.00531636,-0.18351705,-0.0
 2237210,-0.02020171,-0.00062416,-0.00073238,-0.00041951,-0.00296987,0.
 00404063,0.00185333,0.00182229,0.00311732,-0.00475952,0.00192415,-0.03
 117714,0.02739425,0.00170909,0.00011763,-0.00008484,-0.00340839,0.0091
 9064,0.00120146,-0.00847675,-0.00413476,0.00056004,-0.02826939,-0.0124
 6613,-0.00078803,0.41889470,-0.00017122,-0.00080882,-0.00033374,0.0001
 7021,-0.00008034,0.00009251,-0.00045638,0.00001274,-0.00017449,-0.0007
 4527,-0.00170671,0.00157535,-0.00040861,0.00115516,0.00069716,0.000354
 03,-0.00012796,0.00010765,-0.00110201,0.00021102,-0.00073920,-0.000262
 21,0.00028400,-0.00003002,-0.00000029,0.00032088,0.00008661,0.00347366
 ,0.00140974,0.00042829,0.00044198,0.00036708,-0.00016739,0.00353721,0.
 00081039,-0.00334496,-0.00003927,0.00003545,-0.00012705,0.00001762,0.0
 0005933,-0.00004007,0.00005027,-0.00001583,0.00003696,0.00004650,0.000
 04104,0.00014512,0.00001440,0.00005345,0.00002175,-0.00002056,-0.00031
 459,-0.00017784,-0.00004065,0.00004508,-0.00003520,0.00000778,-0.00029
 874,0.00008500,-0.00175348,-0.00513672,-0.00476481,-0.00004841,0.00009
 848,0.00011522,0.00020411,-0.00002121,0.00006227,0.00041467,-0.0005352
 1,0.00037195,-0.00020486,0.00009199,-0.00039636,0.05210945,-0.02362185
 ,0.00323751,-0.00330684,-0.00164931,0.00884960,-0.02439000,-0.01939436
 ,-0.00079925,0.01065597,-0.13165264,0.07170661,-0.00439253,-0.03890417
 ,0.03900402,0.02408364,0.01119842,0.00144801,-0.04452636,-0.09870311,0
 .00929797,-0.00157929,0.00198421,0.00022991,0.00802621,-0.00455987,-0.
 00347997,-0.00057694,-0.00025813,0.00786648,-0.00226869,-0.01543319,0.
 01377076,-0.00045202,0.00225881,0.00097382,0.00351196,-0.00332675,-0.0
 0118937,-0.03184237,-0.01074041,0.00003442,-0.02218037,-0.00543250,0.0
 0374116,0.03697751,0.33438190,0.00009580,0.00006384,-0.00003989,0.0000
 0484,0.00003163,-0.00014992,0.00011701,0.00001045,0.00001906,0.0002750
 4,0.00050657,-0.00060601,-0.00172065,0.00033262,0.00120645,-0.00013674
 ,0.00009112,-0.00012149,0.00008317,-0.00005042,0.00006728,0.00008323,-
 0.00008555,0.00012445,-0.00009770,-0.00005903,0.00015602,-0.00070180,-
 0.00025900,0.00022804,-0.00011879,-0.00008962,0.00013471,-0.00068368,-
 0.00078485,0.00206558,0.00001853,-0.00003606,0.00003807,0.00001543,-0.
 00000730,0.00002124,-0.00004488,-0.00000140,-0.00004094,0.00002193,0.0
 0004512,-0.00002949,-0.00001081,-0.00000965,0.00000829,0.00011034,0.00
 004454,-0.00003195,0.00002115,-0.00001446,0.00001507,-0.00002082,0.000
 08394,-0.00006484,0.00140369,-0.00104196,0.00028839,0.00004402,-0.0000
 2869,-0.00001610,-0.00004042,0.00001389,-0.00000619,-0.00040654,0.0002
 2390,-0.00016582,0.00006975,-0.00002279,0.00002297,-0.01081993,0.00750
 892,0.01025780,-0.00009961,0.00170963,-0.00376955,0.01413954,-0.000412
 91,-0.02139415,-0.01383703,0.06409233,-0.13419600,0.00301350,0.0082336
 9,-0.00055462,0.01099009,0.00581148,0.00125687,0.00105279,0.01948663,-
 0.07549469,-0.00143101,0.00090706,0.00147038,-0.00045857,-0.00034608,0
 .00179944,0.00285998,0.03725853,-0.02810179,0.00143663,0.00414066,-0.0
 0439699,-0.00058904,0.00172930,0.00085912,0.00136486,-0.00236220,0.001
 10478,0.02811534,0.00919778,-0.00099009,-0.02770122,-0.00813750,0.0066
 2028,-0.00424672,-0.14544333,0.24180480,0.00016624,0.00008931,0.000008
 16,0.00003887,-0.00003127,0.00015605,0.00007028,0.00003278,-0.00010649
 ,0.00012710,-0.00046810,0.00014769,-0.00052432,0.00039780,0.00000433,0
 .00029365,-0.00004873,-0.00003675,0.00020123,-0.00003587,0.00006323,-0
 .00029952,0.00003899,0.00012218,-0.00008431,0.00007898,-0.00013758,-0.
 00008028,0.00018954,-0.00019117,-0.00012045,0.00003656,0.00003641,-0.0
 0034587,0.00024713,0.00001825,-0.00002202,0.00005849,-0.00008974,-0.00
 002983,-0.00000069,-0.00000917,0.00007533,0.00003321,-0.00001918,0.000
 04050,0.00000461,0.00008147,-0.00001193,0.00000816,-0.00001317,0.00005
 403,-0.00006058,0.00006883,-0.00002761,0.00000781,-0.00000263,0.000073
 87,-0.00004950,0.00000224,0.00015264,-0.00021423,0.00018396,-0.0000114
 8,0.00001309,-0.00001438,-0.00001653,-0.00001594,-0.00001453,0.0002415
 3,-0.00020696,-0.00012687,0.00000101,-0.00005700,0.00005983,0.00031930
 ,0.00006562,-0.00012375,0.00016528,-0.00036530,-0.00001221,-0.00013272
 ,-0.00015454,0.00022696,-0.05316033,-0.01572825,0.00594487,-0.19879720
 ,-0.02878985,-0.02073736,-0.09035074,-0.01505815,0.00672873,0.00238783
 ,0.01720936,-0.01568917,-0.02715403,-0.01289185,-0.00482906,-0.0080541
 2,-0.00600371,0.00174439,0.00123305,0.00003550,-0.00032682,-0.00381424
 ,0.00719749,0.00090245,0.00208626,0.00224236,-0.00317384,0.00136185,-0
 .02964908,0.02775010,-0.00185490,0.00316249,0.00144416,-0.00016314,-0.
 00077193,-0.00091956,0.00877055,-0.00332855,-0.00217068,0.36719517,-0.
 00003333,-0.00021937,-0.00010660,0.00005180,-0.00001903,0.00007527,-0.
 00005462,-0.00001048,-0.00003329,-0.00003874,-0.00029558,0.00020511,0.
 00001742,0.00034208,0.00001190,0.00016906,-0.00004721,-0.00001097,-0.0
 0009591,-0.00000005,-0.00008730,-0.00015645,0.00010543,0.00004337,-0.0
 0002610,0.00009681,-0.00004333,0.00025466,0.00019299,-0.00008496,0.000
 03185,0.00008811,-0.00001672,0.00027446,0.00007241,-0.00012823,-0.0000
 1739,-0.00000901,-0.00006082,0.00001835,0.00001323,0.00000043,0.000038
 98,-0.00000717,-0.00000105,0.00001499,-0.00000662,0.00005508,0.0000057
 8,0.00000794,0.00000105,0.00000167,-0.00008251,0.00001084,-0.00000835,
 0.00001430,-0.00000554,0.00002248,-0.00009008,0.00001908,-0.00037271,-
 0.00013600,-0.00013469,-0.00000615,0.00001399,0.00001040,0.00001580,-0
 .00000634,0.00000214,0.00000253,-0.00008598,0.00003903,-0.00004513,-0.
 00003777,-0.00000370,0.00038938,0.00008814,-0.00013119,-0.00042760,-0.
 00001443,0.00040506,-0.00051459,0.00002676,-0.00011293,0.01841081,0.01
 034335,0.00244695,-0.05369355,-0.09103549,0.00531415,0.00825586,-0.142
 05547,0.07877708,-0.00206685,-0.04096359,0.03756671,-0.02396710,-0.005
 81025,0.00008531,-0.03217863,-0.01054420,0.00104489,-0.00025269,0.0025
 2891,0.00134691,0.00316059,-0.00276656,-0.00104728,0.00008792,0.001873
 59,0.00840129,-0.00286957,-0.01461415,0.01437221,0.00753705,-0.0046981
 5,-0.00226009,-0.00176421,0.00220251,0.00046905,-0.00295260,0.00790329
 ,-0.00233084,0.08278080,0.28764167,0.00000370,-0.00007154,-0.00006989,
 0.00001084,0.00001725,-0.00011366,0.00000465,-0.00000312,0.00000744,0.
 00002081,0.00020921,-0.00019422,0.00015853,-0.00014956,0.00009745,-0.0
 0010239,0.00004566,-0.00005636,-0.00011179,0.00000464,-0.00004459,0.00
 008015,-0.00003405,0.00005214,-0.00004101,-0.00001590,0.00013806,-0.00
 007483,-0.00007611,0.00019690,0.00000097,-0.00002380,0.00005650,0.0001
 0083,-0.00009550,0.00013962,0.00001409,-0.00002314,0.00002662,0.000017
 97,0.00000437,0.00000812,-0.00003821,-0.00000494,-0.00002042,-0.000001
 48,0.00001324,-0.00001704,-0.00000251,-0.00000118,0.00000725,0.0000419
 6,-0.00000027,-0.00005648,0.00001394,-0.00000700,0.00000599,-0.0000250
 8,0.00003289,-0.00003005,0.00006450,0.00000466,-0.00017055,0.00001525,
 -0.00000923,0.00000622,0.00000484,0.00000715,0.00000856,-0.00012475,0.
 00009750,-0.00002688,0.00002083,0.00001323,-0.00004204,0.00010018,-0.0
 0019536,0.00033846,0.00009413,0.00010535,-0.00020057,-0.00022093,0.000
 27767,-0.00024040,0.01288294,0.00706304,0.00169181,0.00342163,0.017518
 92,-0.08151300,-0.02075105,0.06951701,-0.14377444,0.00006811,0.0112458
 3,0.00042943,-0.02804926,-0.00875203,0.00391600,0.02824497,0.00981059,
 -0.00085503,-0.00100844,0.00231251,0.00129719,0.00222718,-0.00276412,0
 .00124897,0.00066147,0.03542563,-0.03182210,0.00242585,0.00469902,-0.0
 0340411,0.00016083,-0.00044971,0.00135126,-0.00180834,0.00109798,0.001
 68379,-0.00155088,-0.00274305,0.00060143,0.00304979,-0.14410377,0.2493
 4264\\0.00001040,-0.00001297,-0.00000374,0.00000334,-0.00001216,-0.000
 00566,0.00000279,-0.00001342,-0.00001423,0.00001705,-0.00001686,0.,-0.
 00000718,-0.00001724,-0.00001442,0.00001472,-0.00001662,-0.00000800,-0
 .00001721,-0.00000166,-0.00000293,-0.00000026,-0.00000150,0.00000344,0
 .00001181,-0.00001919,-0.00000927,-0.00002256,-0.00001156,-0.00000255,
 -0.00001298,-0.00001518,-0.00000710,-0.00001362,-0.00000040,-0.0000103
 2,0.00000777,-0.00000274,-0.00000250,0.00001201,-0.00000983,-0.0000032
 5,0.00000446,-0.00001708,-0.00001108,0.00001002,-0.00000585,0.00000148
 ,0.00000684,-0.00001637,-0.00000879,0.00000453,-0.00000702,-0.00000390
 ,0.00000010,-0.00001894,-0.00000661,-0.00000027,-0.00001691,-0.0000087
 3,-0.00000611,0.00000144,0.00000089,-0.00000816,-0.00000963,-0.0000113
 9,-0.00001114,-0.00001289,-0.00000940,-0.00000861,0.00000267,-0.000000
 40,0.00000312,-0.00000427,-0.00000701,-0.00001623,-0.00000004,0.000022
 70,-0.00000732,0.00000698,-0.00001665,0.00000467,0.00000314,-0.0000029
 3,-0.00000037,0.00001787,0.00001351,0.00001300,0.00001477,0.00001126,0
 .00000398,0.00002082,0.00001107,-0.00000670,0.00001474,0.00000918,0.00
 000829,0.00001435,0.00001091,0.00000883,0.00001630,0.00001143,-0.00000
 191,0.00001502,0.00000397,0.00000305,0.00001937,0.00000177,0.00000655,
 0.00001736,0.00001137,0.00000185,0.00002378,0.00001498,-0.00000564,0.0
 0001428,0.00001137,-0.00000681,0.00002060,0.00001033,-0.00000416,0.000
 01449,0.00001115,-0.00000193,0.00002234,0.00001006\\\@


      SCIENCE SANS CONSCIENCE N'EST QUE RUINE DE L'AME.

                                                  -- RABELAIS
 Job cpu time:       0 days  8 hours  4 minutes 38.1 seconds.
 Elapsed time:       0 days  0 hours 26 minutes 56.6 seconds.
 File lengths (MBytes):  RWF=   1361 Int=      0 D2E=      0 Chk=     38 Scr=      1
 Normal termination of Gaussian 16 at Sun Jan 13 04:19:30 2019.
