 Entering Gaussian System, Link 0=g16
 Initial command:
 /nopt/nrel/apps/gaussian/G16.sandy/g16/l1.exe "/scratch/ykim/gaussianScratch.6087271/Gau-15543.inp" -scrdir="/scratch/ykim/gaussianScratch.6087271/"
 Default linda workers: n1487
 Default is to use  16 SMP processors on each worker.
 Entering Link 1 = /nopt/nrel/apps/gaussian/G16.sandy/g16/l1.exe PID=     15544.
  
 Copyright (c) 1988,1990,1992,1993,1995,1998,2003,2009,2016,
            Gaussian, Inc.  All Rights Reserved.
  
 This is part of the Gaussian(R) 16 program.  It is based on
 the Gaussian(R) 09 system (copyright 2009, Gaussian, Inc.),
 the Gaussian(R) 03 system (copyright 2003, Gaussian, Inc.),
 the Gaussian(R) 98 system (copyright 1998, Gaussian, Inc.),
 the Gaussian(R) 94 system (copyright 1995, Gaussian, Inc.),
 the Gaussian 92(TM) system (copyright 1992, Gaussian, Inc.),
 the Gaussian 90(TM) system (copyright 1990, Gaussian, Inc.),
 the Gaussian 88(TM) system (copyright 1988, Gaussian, Inc.),
 the Gaussian 86(TM) system (copyright 1986, Carnegie Mellon
 University), and the Gaussian 82(TM) system (copyright 1983,
 Carnegie Mellon University). Gaussian is a federally registered
 trademark of Gaussian, Inc.
  
 This software contains proprietary and confidential information,
 including trade secrets, belonging to Gaussian, Inc.
  
 This software is provided under written license and may be
 used, copied, transmitted, or stored only in accord with that
 written license.
  
 The following legend is applicable only to US Government
 contracts under FAR:
  
                    RESTRICTED RIGHTS LEGEND
  
 Use, reproduction and disclosure by the US Government is
 subject to restrictions as set forth in subparagraphs (a)
 and (c) of the Commercial Computer Software - Restricted
 Rights clause in FAR 52.227-19.
  
 Gaussian, Inc.
 340 Quinnipiac St., Bldg. 40, Wallingford CT 06492
  
  
 ---------------------------------------------------------------
 Warning -- This program may not be used in any manner that
 competes with the business of Gaussian, Inc. or will provide
 assistance to any competitor of Gaussian, Inc.  The licensee
 of this program is prohibited from giving any competitor of
 Gaussian, Inc. access to this program.  By using this program,
 the user acknowledges that Gaussian, Inc. is engaged in the
 business of creating and licensing software in the field of
 computational chemistry and represents and warrants to the
 licensee that it is not a competitor of Gaussian, Inc. and that
 it will not use this program in any manner prohibited above.
 ---------------------------------------------------------------
  

 Cite this work as:
 Gaussian 16, Revision A.03,
 M. J. Frisch, G. W. Trucks, H. B. Schlegel, G. E. Scuseria, 
 M. A. Robb, J. R. Cheeseman, G. Scalmani, V. Barone, 
 G. A. Petersson, H. Nakatsuji, X. Li, M. Caricato, A. V. Marenich, 
 J. Bloino, B. G. Janesko, R. Gomperts, B. Mennucci, H. P. Hratchian, 
 J. V. Ortiz, A. F. Izmaylov, J. L. Sonnenberg, D. Williams-Young, 
 F. Ding, F. Lipparini, F. Egidi, J. Goings, B. Peng, A. Petrone, 
 T. Henderson, D. Ranasinghe, V. G. Zakrzewski, J. Gao, N. Rega, 
 G. Zheng, W. Liang, M. Hada, M. Ehara, K. Toyota, R. Fukuda, 
 J. Hasegawa, M. Ishida, T. Nakajima, Y. Honda, O. Kitao, H. Nakai, 
 T. Vreven, K. Throssell, J. A. Montgomery, Jr., J. E. Peralta, 
 F. Ogliaro, M. J. Bearpark, J. J. Heyd, E. N. Brothers, K. N. Kudin, 
 V. N. Staroverov, T. A. Keith, R. Kobayashi, J. Normand, 
 K. Raghavachari, A. P. Rendell, J. C. Burant, S. S. Iyengar, 
 J. Tomasi, M. Cossi, J. M. Millam, M. Klene, C. Adamo, R. Cammi, 
 J. W. Ochterski, R. L. Martin, K. Morokuma, O. Farkas, 
 J. B. Foresman, and D. J. Fox, Gaussian, Inc., Wallingford CT, 2016.
 
 ******************************************
 Gaussian 16:  ES64L-G16RevA.03 25-Dec-2016
                13-Dec-2018 
 ******************************************
 %nprocshared=16
 Will use up to   16 processors via shared memory.
 %mem=24GB
 SetLPE:    new flags="-opt 'Tsnet.Node.lindarsharg: ssh'  -nodelist 'n1487' -env GAUSS_MDEF=3221225472 -env GAUSS_EXEDIR="/nopt/nrel/apps/gaussian/G16.sandy/g16/bsd:/nopt/nrel/apps/gaussian/G16.sandy/g16/local:/nopt/nrel/apps/gaussian/G16.sandy/g16/extras:/nopt/nrel/apps/gaussian/G16.sandy/g16""
 Will use up to    1 processors via Linda.
 Default route: CacheSize=327680 MaxDisk=128GB
 ----------------------------------------------------------------------
 # opt=maxstep=3 freq m062x/6-311++g(d,p) scrf=(solvent=acetonitrile,sm
 d) scf=(xqc,maxconventionalcycles=400) temperature=443.15
 ----------------------------------------------------------------------
 1/4=327680,8=3,18=20,19=15,26=3,38=1,112=443150/1,3;
 2/4=327680,9=110,12=2,17=6,18=5,40=1/2;
 3/4=327680,5=4,6=6,7=1111,11=2,25=1,30=1,70=32201,71=1,72=2,74=-55/1,2,3;
 4/4=327680/1;
 5/4=327680,5=2,8=3,13=1,38=5,53=2,85=400/2,8;
 6/4=327680,7=2,8=2,9=2,10=2,28=1/1;
 7/4=327680/1,2,3,16;
 1/4=327680,8=3,18=20,19=15,26=3/3(2);
 2/4=327680,9=110/2;
 99/4=327680/99;
 2/4=327680,9=110/2;
 3/4=327680,5=4,6=6,7=1111,11=2,25=1,30=1,70=32205,71=1,72=2,74=-55/1,2,3;
 4/4=327680,5=5,16=3,69=1/1;
 5/4=327680,5=2,8=3,13=1,38=5,53=2,85=400/2,8;
 7/4=327680/1,2,3,16;
 1/4=327680,8=3,18=20,19=15,26=3/3(-5);
 2/4=327680,9=110/2;
 6/4=327680,7=2,8=2,9=2,10=2,19=2,28=1/1;
 99/4=327680,9=1/99;
 -------------------
 Title Card Required
 -------------------
 Symbolic Z-matrix:
 Charge =  1 Multiplicity = 1
 C                     2.64387   0.27331  -0.95396 
 C                     2.61539   1.28058   0.21153 
 C                     1.62539   0.64832   1.20733 
 C                     0.64937  -0.02218   0.22 
 O                     1.48312  -0.56436  -0.77369 
 C                     3.87569  -0.59839  -1.01624 
 C                    -0.18063  -1.15391   0.79431 
 O                     4.03744  -1.24917   0.24119 
 O                     2.08569   2.49946  -0.30778 
 O                    -0.23489   0.9422   -0.33458 
 O                     2.23189  -0.27489   2.06928 
 O                    -0.89861  -1.84053  -0.24843 
 H                     3.75687  -1.33626  -1.81454 
 H                     4.73879   0.03515  -1.2404 
 H                     4.89116  -1.6944    0.26943 
 H                     2.5531    0.81584  -1.89873 
 H                     3.59941   1.43389   0.65922 
 H                     2.15537   3.18244   0.37152 
 H                     1.11984   1.4005    1.8143 
 H                     2.89871  -0.77584   1.56728 
 H                     0.26901   1.74507  -0.54893 
 H                    -0.92729  -0.76536   1.48659 
 H                     0.46527  -1.86433   1.30496 
 H                    -0.2626   -2.24235  -0.86137 
 H                    -1.87927   0.55978  -1.07119 
 O                    -2.43582  -0.22745  -1.26461 
 H                    -1.86512  -1.01948  -0.85628 
 H                    -3.37286  -0.13233  -0.87501 
 N                    -4.84722   0.03002  -0.33391 
 C                    -5.90883   0.1453    0.08027 
 C                    -7.25665   0.29148   0.59427 
 H                    -7.95816   0.16138  -0.2307 
 H                    -7.42456  -0.47026   1.35701 
 H                    -7.35947   1.28726   1.02824 
 
 Add virtual bond connecting atoms H27        and O12        Dist= 2.66D+00.
 Add virtual bond connecting atoms N29        and H28        Dist= 2.98D+00.

 GradGradGradGradGradGradGradGradGradGradGradGradGradGradGradGradGradGrad
 Berny optimization.
 Initialization pass.
                           ----------------------------
                           !    Initial Parameters    !
                           ! (Angstroms and Degrees)  !
 --------------------------                            --------------------------
 ! Name  Definition              Value          Derivative Info.                !
 --------------------------------------------------------------------------------
 ! R1    R(1,2)                  1.5407         estimate D2E/DX2                !
 ! R2    R(1,5)                  1.4428         estimate D2E/DX2                !
 ! R3    R(1,6)                  1.5103         estimate D2E/DX2                !
 ! R4    R(1,16)                 1.0932         estimate D2E/DX2                !
 ! R5    R(2,3)                  1.54           estimate D2E/DX2                !
 ! R6    R(2,9)                  1.4269         estimate D2E/DX2                !
 ! R7    R(2,17)                 1.0919         estimate D2E/DX2                !
 ! R8    R(3,4)                  1.5418         estimate D2E/DX2                !
 ! R9    R(3,11)                 1.4011         estimate D2E/DX2                !
 ! R10   R(3,19)                 1.0908         estimate D2E/DX2                !
 ! R11   R(4,5)                  1.4059         estimate D2E/DX2                !
 ! R12   R(4,7)                  1.5164         estimate D2E/DX2                !
 ! R13   R(4,10)                 1.4211         estimate D2E/DX2                !
 ! R14   R(6,8)                  1.4251         estimate D2E/DX2                !
 ! R15   R(6,13)                 1.0935         estimate D2E/DX2                !
 ! R16   R(6,14)                 1.0939         estimate D2E/DX2                !
 ! R17   R(7,12)                 1.4402         estimate D2E/DX2                !
 ! R18   R(7,22)                 1.0898         estimate D2E/DX2                !
 ! R19   R(7,23)                 1.0875         estimate D2E/DX2                !
 ! R20   R(8,15)                 0.9633         estimate D2E/DX2                !
 ! R21   R(9,18)                 0.9658         estimate D2E/DX2                !
 ! R22   R(10,21)                0.9718         estimate D2E/DX2                !
 ! R23   R(11,20)                0.9734         estimate D2E/DX2                !
 ! R24   R(12,24)                0.9704         estimate D2E/DX2                !
 ! R25   R(12,27)                1.4063         estimate D2E/DX2                !
 ! R26   R(25,26)                0.9833         estimate D2E/DX2                !
 ! R27   R(26,27)                1.0582         estimate D2E/DX2                !
 ! R28   R(26,28)                1.0193         estimate D2E/DX2                !
 ! R29   R(28,29)                1.5789         estimate D2E/DX2                !
 ! R30   R(29,30)                1.1454         estimate D2E/DX2                !
 ! R31   R(30,31)                1.4499         estimate D2E/DX2                !
 ! R32   R(31,32)                1.0907         estimate D2E/DX2                !
 ! R33   R(31,33)                1.091          estimate D2E/DX2                !
 ! R34   R(31,34)                1.0911         estimate D2E/DX2                !
 ! A1    A(2,1,5)              105.6754         estimate D2E/DX2                !
 ! A2    A(2,1,6)              115.062          estimate D2E/DX2                !
 ! A3    A(2,1,16)             109.133          estimate D2E/DX2                !
 ! A4    A(5,1,6)              109.0402         estimate D2E/DX2                !
 ! A5    A(5,1,16)             109.2268         estimate D2E/DX2                !
 ! A6    A(6,1,16)             108.5723         estimate D2E/DX2                !
 ! A7    A(1,2,3)              103.452          estimate D2E/DX2                !
 ! A8    A(1,2,9)              106.8595         estimate D2E/DX2                !
 ! A9    A(1,2,17)             112.6623         estimate D2E/DX2                !
 ! A10   A(3,2,9)              110.3291         estimate D2E/DX2                !
 ! A11   A(3,2,17)             111.8312         estimate D2E/DX2                !
 ! A12   A(9,2,17)             111.3363         estimate D2E/DX2                !
 ! A13   A(2,3,4)               99.8706         estimate D2E/DX2                !
 ! A14   A(2,3,11)             112.9578         estimate D2E/DX2                !
 ! A15   A(2,3,19)             112.0038         estimate D2E/DX2                !
 ! A16   A(4,3,11)             112.4228         estimate D2E/DX2                !
 ! A17   A(4,3,19)             111.2749         estimate D2E/DX2                !
 ! A18   A(11,3,19)            108.2208         estimate D2E/DX2                !
 ! A19   A(3,4,5)              104.1775         estimate D2E/DX2                !
 ! A20   A(3,4,7)              115.3745         estimate D2E/DX2                !
 ! A21   A(3,4,10)             110.4078         estimate D2E/DX2                !
 ! A22   A(5,4,7)              107.726          estimate D2E/DX2                !
 ! A23   A(5,4,10)             110.7866         estimate D2E/DX2                !
 ! A24   A(7,4,10)             108.2813         estimate D2E/DX2                !
 ! A25   A(1,5,4)              109.9702         estimate D2E/DX2                !
 ! A26   A(1,6,8)              108.6483         estimate D2E/DX2                !
 ! A27   A(1,6,13)             109.3245         estimate D2E/DX2                !
 ! A28   A(1,6,14)             108.5246         estimate D2E/DX2                !
 ! A29   A(8,6,13)             110.3851         estimate D2E/DX2                !
 ! A30   A(8,6,14)             110.8388         estimate D2E/DX2                !
 ! A31   A(13,6,14)            109.0828         estimate D2E/DX2                !
 ! A32   A(4,7,12)             110.7607         estimate D2E/DX2                !
 ! A33   A(4,7,22)             110.4561         estimate D2E/DX2                !
 ! A34   A(4,7,23)             109.895          estimate D2E/DX2                !
 ! A35   A(12,7,22)            106.7581         estimate D2E/DX2                !
 ! A36   A(12,7,23)            108.9419         estimate D2E/DX2                !
 ! A37   A(22,7,23)            109.9705         estimate D2E/DX2                !
 ! A38   A(6,8,15)             109.7276         estimate D2E/DX2                !
 ! A39   A(2,9,18)             108.7436         estimate D2E/DX2                !
 ! A40   A(4,10,21)            108.9096         estimate D2E/DX2                !
 ! A41   A(3,11,20)            108.5641         estimate D2E/DX2                !
 ! A42   A(7,12,24)            109.1464         estimate D2E/DX2                !
 ! A43   A(7,12,27)            112.1607         estimate D2E/DX2                !
 ! A44   A(24,12,27)           114.7833         estimate D2E/DX2                !
 ! A45   A(25,26,27)           102.5964         estimate D2E/DX2                !
 ! A46   A(25,26,28)           111.7424         estimate D2E/DX2                !
 ! A47   A(27,26,28)           114.7186         estimate D2E/DX2                !
 ! A48   A(30,31,32)           108.5261         estimate D2E/DX2                !
 ! A49   A(30,31,33)           108.6948         estimate D2E/DX2                !
 ! A50   A(30,31,34)           108.7001         estimate D2E/DX2                !
 ! A51   A(32,31,33)           110.2755         estimate D2E/DX2                !
 ! A52   A(32,31,34)           110.4316         estimate D2E/DX2                !
 ! A53   A(33,31,34)           110.1605         estimate D2E/DX2                !
 ! A54   L(12,27,26,9,-1)      167.1407         estimate D2E/DX2                !
 ! A55   L(26,28,29,22,-1)     182.467          estimate D2E/DX2                !
 ! A56   L(28,29,30,22,-1)     178.8414         estimate D2E/DX2                !
 ! A57   L(29,30,31,19,-1)     180.3944         estimate D2E/DX2                !
 ! A58   L(12,27,26,9,-2)      181.8132         estimate D2E/DX2                !
 ! A59   L(26,28,29,22,-2)     179.8208         estimate D2E/DX2                !
 ! A60   L(28,29,30,22,-2)     179.9232         estimate D2E/DX2                !
 ! A61   L(29,30,31,19,-2)     179.6985         estimate D2E/DX2                !
 ! D1    D(5,1,2,3)             16.1921         estimate D2E/DX2                !
 ! D2    D(5,1,2,9)           -100.2788         estimate D2E/DX2                !
 ! D3    D(5,1,2,17)           137.1379         estimate D2E/DX2                !
 ! D4    D(6,1,2,3)           -104.1577         estimate D2E/DX2                !
 ! D5    D(6,1,2,9)            139.3714         estimate D2E/DX2                !
 ! D6    D(6,1,2,17)            16.7881         estimate D2E/DX2                !
 ! D7    D(16,1,2,3)           133.5394         estimate D2E/DX2                !
 ! D8    D(16,1,2,9)            17.0685         estimate D2E/DX2                !
 ! D9    D(16,1,2,17)         -105.5148         estimate D2E/DX2                !
 ! D10   D(2,1,5,4)             10.4011         estimate D2E/DX2                !
 ! D11   D(6,1,5,4)            134.6143         estimate D2E/DX2                !
 ! D12   D(16,1,5,4)          -106.883          estimate D2E/DX2                !
 ! D13   D(2,1,6,8)             54.1825         estimate D2E/DX2                !
 ! D14   D(2,1,6,13)           174.708          estimate D2E/DX2                !
 ! D15   D(2,1,6,14)           -66.4179         estimate D2E/DX2                !
 ! D16   D(5,1,6,8)            -64.3017         estimate D2E/DX2                !
 ! D17   D(5,1,6,13)            56.2237         estimate D2E/DX2                !
 ! D18   D(5,1,6,14)           175.0979         estimate D2E/DX2                !
 ! D19   D(16,1,6,8)           176.7864         estimate D2E/DX2                !
 ! D20   D(16,1,6,13)          -62.6881         estimate D2E/DX2                !
 ! D21   D(16,1,6,14)           56.1861         estimate D2E/DX2                !
 ! D22   D(1,2,3,4)            -33.7235         estimate D2E/DX2                !
 ! D23   D(1,2,3,11)            85.8923         estimate D2E/DX2                !
 ! D24   D(1,2,3,19)          -151.5985         estimate D2E/DX2                !
 ! D25   D(9,2,3,4)             80.2701         estimate D2E/DX2                !
 ! D26   D(9,2,3,11)          -160.1141         estimate D2E/DX2                !
 ! D27   D(9,2,3,19)           -37.6049         estimate D2E/DX2                !
 ! D28   D(17,2,3,4)          -155.2301         estimate D2E/DX2                !
 ! D29   D(17,2,3,11)          -35.6142         estimate D2E/DX2                !
 ! D30   D(17,2,3,19)           86.895          estimate D2E/DX2                !
 ! D31   D(1,2,9,18)          -173.1854         estimate D2E/DX2                !
 ! D32   D(3,2,9,18)            75.0062         estimate D2E/DX2                !
 ! D33   D(17,2,9,18)          -49.7771         estimate D2E/DX2                !
 ! D34   D(2,3,4,5)             40.9028         estimate D2E/DX2                !
 ! D35   D(2,3,4,7)            158.7668         estimate D2E/DX2                !
 ! D36   D(2,3,4,10)           -78.0795         estimate D2E/DX2                !
 ! D37   D(11,3,4,5)           -79.1034         estimate D2E/DX2                !
 ! D38   D(11,3,4,7)            38.7606         estimate D2E/DX2                !
 ! D39   D(11,3,4,10)          161.9143         estimate D2E/DX2                !
 ! D40   D(19,3,4,5)           159.3183         estimate D2E/DX2                !
 ! D41   D(19,3,4,7)           -82.8177         estimate D2E/DX2                !
 ! D42   D(19,3,4,10)           40.336          estimate D2E/DX2                !
 ! D43   D(2,3,11,20)          -38.1182         estimate D2E/DX2                !
 ! D44   D(4,3,11,20)           73.9798         estimate D2E/DX2                !
 ! D45   D(19,3,11,20)        -162.7166         estimate D2E/DX2                !
 ! D46   D(3,4,5,1)            -32.8587         estimate D2E/DX2                !
 ! D47   D(7,4,5,1)           -155.8679         estimate D2E/DX2                !
 ! D48   D(10,4,5,1)            85.8651         estimate D2E/DX2                !
 ! D49   D(3,4,7,12)          -171.0961         estimate D2E/DX2                !
 ! D50   D(3,4,7,22)            70.8366         estimate D2E/DX2                !
 ! D51   D(3,4,7,23)           -50.6737         estimate D2E/DX2                !
 ! D52   D(5,4,7,12)           -55.235          estimate D2E/DX2                !
 ! D53   D(5,4,7,22)          -173.3022         estimate D2E/DX2                !
 ! D54   D(5,4,7,23)            65.1875         estimate D2E/DX2                !
 ! D55   D(10,4,7,12)           64.6313         estimate D2E/DX2                !
 ! D56   D(10,4,7,22)          -53.436          estimate D2E/DX2                !
 ! D57   D(10,4,7,23)         -174.9463         estimate D2E/DX2                !
 ! D58   D(3,4,10,21)           41.9641         estimate D2E/DX2                !
 ! D59   D(5,4,10,21)          -72.9181         estimate D2E/DX2                !
 ! D60   D(7,4,10,21)          169.153          estimate D2E/DX2                !
 ! D61   D(1,6,8,15)          -170.8227         estimate D2E/DX2                !
 ! D62   D(13,6,8,15)           69.3099         estimate D2E/DX2                !
 ! D63   D(14,6,8,15)          -51.6632         estimate D2E/DX2                !
 ! D64   D(4,7,12,24)           62.6975         estimate D2E/DX2                !
 ! D65   D(4,7,12,27)          -65.6576         estimate D2E/DX2                !
 ! D66   D(22,7,12,24)        -177.0054         estimate D2E/DX2                !
 ! D67   D(22,7,12,27)          54.6394         estimate D2E/DX2                !
 ! D68   D(23,7,12,24)         -58.2907         estimate D2E/DX2                !
 ! D69   D(23,7,12,27)         173.3542         estimate D2E/DX2                !
 ! D70   D(7,12,26,25)          28.7215         estimate D2E/DX2                !
 ! D71   D(7,12,26,28)         -89.5502         estimate D2E/DX2                !
 ! D72   D(24,12,26,25)        -92.9603         estimate D2E/DX2                !
 ! D73   D(24,12,26,28)        148.768          estimate D2E/DX2                !
 ! D74   D(25,26,31,32)        123.8671         estimate D2E/DX2                !
 ! D75   D(25,26,31,33)       -116.2009         estimate D2E/DX2                !
 ! D76   D(25,26,31,34)          3.828          estimate D2E/DX2                !
 ! D77   D(27,26,31,32)       -118.8531         estimate D2E/DX2                !
 ! D78   D(27,26,31,33)          1.079          estimate D2E/DX2                !
 ! D79   D(27,26,31,34)        121.1079         estimate D2E/DX2                !
 --------------------------------------------------------------------------------
 Trust Radius=3.00D-02 FncErr=1.00D-07 GrdErr=1.00D-06 EigMax=2.50D+02 EigMin=1.00D-04
 Number of steps in this run=    184 maximum allowed number of steps=    204.
 GradGradGradGradGradGradGradGradGradGradGradGradGradGradGradGradGradGrad

                          Input orientation:                          
 ---------------------------------------------------------------------
 Center     Atomic      Atomic             Coordinates (Angstroms)
 Number     Number       Type             X           Y           Z
 ---------------------------------------------------------------------
      1          6           0        2.643874    0.273311   -0.953963
      2          6           0        2.615391    1.280577    0.211528
      3          6           0        1.625391    0.648320    1.207330
      4          6           0        0.649373   -0.022180    0.220000
      5          8           0        1.483116   -0.564358   -0.773691
      6          6           0        3.875689   -0.598386   -1.016244
      7          6           0       -0.180627   -1.153907    0.794306
      8          8           0        4.037445   -1.249167    0.241189
      9          8           0        2.085695    2.499459   -0.307775
     10          8           0       -0.234890    0.942203   -0.334583
     11          8           0        2.231890   -0.274886    2.069275
     12          8           0       -0.898611   -1.840534   -0.248432
     13          1           0        3.756865   -1.336259   -1.814537
     14          1           0        4.738793    0.035147   -1.240402
     15          1           0        4.891163   -1.694395    0.269433
     16          1           0        2.553101    0.815838   -1.898733
     17          1           0        3.599411    1.433886    0.659224
     18          1           0        2.155365    3.182443    0.371516
     19          1           0        1.119840    1.400504    1.814300
     20          1           0        2.898709   -0.775843    1.567282
     21          1           0        0.269006    1.745072   -0.548933
     22          1           0       -0.927287   -0.765359    1.486588
     23          1           0        0.465268   -1.864334    1.304957
     24          1           0       -0.262601   -2.242351   -0.861365
     25          1           0       -1.879274    0.559784   -1.071188
     26          8           0       -2.435816   -0.227450   -1.264613
     27          1           0       -1.865123   -1.019481   -0.856275
     28          1           0       -3.372859   -0.132331   -0.875012
     29          7           0       -4.847215    0.030017   -0.333907
     30          6           0       -5.908825    0.145298    0.080271
     31          6           0       -7.256652    0.291476    0.594269
     32          1           0       -7.958161    0.161379   -0.230696
     33          1           0       -7.424558   -0.470262    1.357007
     34          1           0       -7.359471    1.287261    1.028243
 ---------------------------------------------------------------------
                    Distance matrix (angstroms):
                    1          2          3          4          5
     1  C    0.000000
     2  C    1.540703   0.000000
     3  C    2.418497   1.539958   0.000000
     4  C    2.333139   2.358490   1.541753   0.000000
     5  O    1.442757   2.378337   2.327074   1.405883   0.000000
     6  C    1.510332   2.574156   3.400353   3.502774   2.405077
     7  C    3.615412   3.752873   2.584630   1.516421   2.360979
     8  O    2.385030   2.902193   3.217435   3.603467   2.832586
     9  O    2.384294   1.426859   2.436009   2.949615   3.157080
    10  O    3.019657   2.921786   2.434031   1.421097   2.326819
    11  O    3.100035   2.453113   1.401107   2.447047   2.954135
    12  O    4.185130   4.722405   3.832000   2.433535   2.752662
    13  H    2.137768   3.500819   4.196834   3.939880   2.617084
    14  H    2.127782   2.857977   4.007573   4.342743   3.343151
    15  H    3.227828   3.746058   4.127134   4.559773   3.738967
    16  H    1.093236   2.161727   3.245972   2.969088   2.077385
    17  H    2.205075   1.091893   2.194149   3.319001   3.244215
    18  H    3.233974   1.963241   2.720521   3.544091   3.975165
    19  H    3.355074   2.195435   1.090768   2.187958   3.269610
    20  H    2.742689   2.479355   1.944002   2.728129   2.743863
    21  H    2.823141   2.509896   2.475299   1.964463   2.618787
    22  H    4.448406   4.285114   2.931320   2.154627   3.310484
    23  H    3.797179   3.963468   2.769268   2.145823   2.654568
    24  H    3.845091   4.673859   4.024921   2.632528   2.422989
    25  H    4.533727   4.729367   4.181167   2.898259   3.557790
    26  O    5.113757   5.474288   4.834344   3.429957   3.963905
    27  H    4.691685   5.148347   4.384486   2.911300   3.380039
    28  H    6.030908   6.247881   5.470655   4.170076   4.876208
    29  N    7.520643   7.586296   6.682241   5.524673   6.373365
    30  C    8.615955   8.600485   7.634638   6.561824   7.474868
    31  C   10.020867   9.928849   8.910324   7.921091   8.887481
    32  H   10.627266  10.641812   9.703066   8.621280   9.484685
    33  H   10.356969  10.255639   9.120044   8.165900   9.159442
    34  H   10.248129  10.008244   9.009332   8.155334   9.212318
                    6          7          8          9         10
     6  C    0.000000
     7  C    4.476650   0.000000
     8  O    1.425068   4.255249   0.000000
     9  O    3.647280   4.438229   4.261794   0.000000
    10  O    4.442402   2.381389   4.835955   2.794795   0.000000
    11  O    3.511005   2.866786   2.747936   3.656327   3.653059
    12  O    4.992635   1.440229   4.995407   5.267366   2.862092
    13  H    1.093548   4.726855   2.076613   4.447007   4.828640
    14  H    1.093874   5.454776   2.082418   3.739192   5.136222
    15  H    1.971139   5.127443   0.963255   5.078605   5.795939
    16  H    2.127923   4.313424   3.323671   2.363090   3.199285
    17  H    2.648330   4.582969   2.750527   2.088509   3.991399
    18  H    4.379505   4.943636   4.816469   0.965794   3.351204
    19  H    4.427442   3.042469   4.243566   2.577553   2.581285
    20  H    2.767777   3.197301   1.810878   3.860626   4.048236
    21  H    4.326469   3.226537   4.877591   1.981821   0.971831
    22  H    5.418545   1.089828   5.141367   4.791329   2.590723
    23  H    4.315272   1.087498   3.777629   4.926396   3.324900
    24  H    4.455564   1.983098   4.548894   5.320312   3.227948
    25  H    5.870603   3.049952   6.324729   4.479522   1.841964
    26  O    6.327272   3.191136   6.724169   5.366156   2.660286
    27  H    5.758458   2.362205   6.008119   5.319093   2.603464
    28  H    7.264888   3.744407   7.576664   6.086369   3.360586
    29  N    8.772088   4.944854   8.994678   7.359624   4.701662
    30  C    9.873810   5.916928  10.044835   8.342961   5.744624
    31  C   11.283378   7.224907  11.404160   9.642008   7.112760
    32  H   11.884205   7.954284  12.087468  10.312691   7.763336
    33  H   11.547481   7.297845  11.542498  10.101270   7.519831
    34  H   11.574300   7.586160  11.702248   9.615900   7.261957
                   11         12         13         14         15
    11  O    0.000000
    12  O    4.197982   0.000000
    13  H    4.305352   4.937655   0.000000
    14  H    4.163490   6.023496   1.781732   0.000000
    15  H    3.510865   5.814725   2.399547   2.300898   0.000000
    16  H    4.127704   4.657695   2.467318   2.412494   4.058170
    17  H    2.603509   5.637186   3.717256   2.619779   3.406861
    18  H    3.852449   5.911125   5.268994   4.379252   5.592724
    19  H    2.026968   4.339739   5.254734   4.928714   5.117411
    20  H    0.973449   4.341661   3.533723   3.453506   2.549122
    21  H    3.845537   3.782883   4.823019   4.835387   5.819278
    22  H    3.249690   2.041352   5.758874   6.338907   6.016555
    23  H    2.496293   2.067305   4.565601   5.324462   4.548597
    24  H    4.322274   0.970388   4.229143   5.508594   5.304738
    25  H    5.240310   2.720322   5.992796   6.640985   7.260675
    26  O    5.736248   2.449013   6.315154   7.179454   7.628227
    27  H    5.089084   1.406324   5.711862   6.698619   6.882596
    28  H    6.332642   3.071232   7.291441   8.121604   8.487865
    29  N    7.482110   4.370096   8.836808   9.628775   9.908260
    30  C    8.390705   5.399428   9.960465  10.729775  10.957189
    31  C    9.619191   6.758720  11.390760  12.137645  12.313351
    32  H   10.455493   7.337930  11.916094  12.737664  12.992273
    33  H    9.684652   6.858795  11.654736  12.447854  12.424102
    34  H    9.773344   7.290796  11.770182  12.372653  12.631077
                   16         17         18         19         20
    16  H    0.000000
    17  H    2.831941   0.000000
    18  H    3.303490   2.285934   0.000000
    19  H    4.022771   2.735615   2.515799   0.000000
    20  H    3.829641   2.489670   4.201243   2.821680   0.000000
    21  H    2.811143   3.556414   2.543936   2.535255   4.212923
    22  H    5.106240   5.100216   5.131400   2.998181   3.826861
    23  H    4.669689   4.595441   5.403489   3.368540   2.678668
    24  H    4.284487   5.544551   6.065884   4.726597   4.247688
    25  H    4.516231   5.811572   5.023748   4.245885   5.619123
    26  O    5.136132   6.548676   5.948381   4.977211   6.064447
    27  H    4.896511   6.178744   5.943733   4.679562   5.350428
    28  H    6.088024   7.308862   6.565274   5.455852   6.761026
    29  N    7.604661   8.619898   7.711779   6.488357   8.016437
    30  C    8.716093   9.612606   8.622078   7.347417   8.979552
    31  C   10.135150  10.916200   9.848521   8.537215  10.257548
    32  H   10.662893  11.661419  10.572270   9.387627  11.044579
    33  H   10.573910  11.208951  10.299921   8.758745  10.329929
    34  H   10.346425  10.966074   9.723945   8.516421  10.477462
                   21         22         23         24         25
    21  H    0.000000
    22  H    3.446263   0.000000
    23  H    4.062418   1.783240   0.000000
    24  H    4.034819   2.852402   2.316385   0.000000
    25  H    2.508538   3.033892   4.125444   3.241854   0.000000
    26  O    3.423318   3.183412   4.206943   2.990869   0.983305
    27  H    3.505955   2.536360   3.288681   2.015816   1.593884
    28  H    4.110249   3.458136   4.741658   3.758467   1.657801
    29  N    5.400312   4.394617   5.873408   5.143982   3.103693
    30  C    6.412548   5.255734   6.794670   6.202209   4.211287
    31  C    7.749541   6.478734   8.048642   7.579967   5.635772
    32  H    8.384249   7.296650   8.798631   8.086860   6.149636
    33  H    8.229899   6.505260   8.012209   7.704226   6.140627
    34  H    7.803252   6.767298   8.440122   8.148272   5.913492
                   26         27         28         29         30
    26  O    0.000000
    27  H    1.058179   0.000000
    28  H    1.019258   1.749473   0.000000
    29  N    2.597566   3.204245   1.578885   0.000000
    30  C    3.742919   4.311073   2.724108   1.145360   0.000000
    31  C    5.192801   5.735091   4.173997   2.595238   1.449896
    32  H    5.631737   6.237860   4.639655   3.115428   2.072857
    33  H    5.640868   6.008958   4.638143   3.122846   2.075190
    34  H    5.638609   6.249826   4.640118   3.122106   2.075356
                   31         32         33         34
    31  C    0.000000
    32  H    1.090691   0.000000
    33  H    1.090966   1.790113   0.000000
    34  H    1.091097   1.791917   1.789192   0.000000
 Stoichiometry    C8H18NO7(1+)
 Framework group  C1[X(C8H18NO7)]
 Deg. of freedom    96
 Full point group                 C1      NOp   1
 Largest Abelian subgroup         C1      NOp   1
 Largest concise Abelian subgroup C1      NOp   1
                         Standard orientation:                         
 ---------------------------------------------------------------------
 Center     Atomic      Atomic             Coordinates (Angstroms)
 Number     Number       Type             X           Y           Z
 ---------------------------------------------------------------------
      1          6           0        2.643874    0.273311   -0.953963
      2          6           0        2.615391    1.280577    0.211528
      3          6           0        1.625391    0.648320    1.207330
      4          6           0        0.649373   -0.022180    0.220000
      5          8           0        1.483116   -0.564358   -0.773691
      6          6           0        3.875689   -0.598386   -1.016244
      7          6           0       -0.180627   -1.153907    0.794306
      8          8           0        4.037445   -1.249167    0.241189
      9          8           0        2.085695    2.499459   -0.307775
     10          8           0       -0.234890    0.942203   -0.334583
     11          8           0        2.231890   -0.274886    2.069275
     12          8           0       -0.898611   -1.840534   -0.248432
     13          1           0        3.756865   -1.336259   -1.814537
     14          1           0        4.738793    0.035147   -1.240402
     15          1           0        4.891163   -1.694395    0.269433
     16          1           0        2.553101    0.815838   -1.898733
     17          1           0        3.599411    1.433886    0.659224
     18          1           0        2.155365    3.182443    0.371516
     19          1           0        1.119840    1.400504    1.814300
     20          1           0        2.898709   -0.775843    1.567282
     21          1           0        0.269006    1.745072   -0.548933
     22          1           0       -0.927287   -0.765359    1.486588
     23          1           0        0.465268   -1.864334    1.304957
     24          1           0       -0.262601   -2.242351   -0.861365
     25          1           0       -1.879274    0.559784   -1.071188
     26          8           0       -2.435816   -0.227450   -1.264613
     27          1           0       -1.865123   -1.019481   -0.856275
     28          1           0       -3.372859   -0.132331   -0.875012
     29          7           0       -4.847215    0.030017   -0.333907
     30          6           0       -5.908825    0.145298    0.080271
     31          6           0       -7.256652    0.291476    0.594269
     32          1           0       -7.958161    0.161379   -0.230696
     33          1           0       -7.424558   -0.470262    1.357007
     34          1           0       -7.359471    1.287261    1.028243
 ---------------------------------------------------------------------
 Rotational constants (GHZ):           1.0683663           0.1807798           0.1749151
 Standard basis: 6-311++G(d,p) (5D, 7F)
 There are   494 symmetry adapted cartesian basis functions of A   symmetry.
 There are   478 symmetry adapted basis functions of A   symmetry.
   478 basis functions,   738 primitive gaussians,   494 cartesian basis functions
    64 alpha electrons       64 beta electrons
       nuclear repulsion energy      1248.4559460460 Hartrees.
 NAtoms=   34 NActive=   34 NUniq=   34 SFac= 1.00D+00 NAtFMM=   60 NAOKFM=F Big=F
 Integral buffers will be    131072 words long.
 Raffenetti 2 integral format.
 Two-electron integral symmetry is turned on.
 ------------------------------------------------------------------------------
 Polarizable Continuum Model (PCM)
 =================================
 Model                : PCM.
 Atomic radii         : SMD-Coulomb.
 Polarization charges : Total charges.
 Charge compensation  : None.
 Solution method      : On-the-fly selection.
 Cavity type          : VdW (van der Waals Surface) (Alpha=1.000).
 Cavity algorithm     : GePol (No added spheres)
                        Default sphere list used, NSphG=   34.
                        Lebedev-Laikov grids with approx.  5.0 points / Ang**2.
                        Smoothing algorithm: York/Karplus (Gamma=1.0000).
                        Polarization charges: spherical gaussians, with
                                              point-specific exponents (IZeta= 3).
                        Self-potential: point-specific (ISelfS= 7).
                        Self-field    : sphere-specific E.n sum rule (ISelfD= 2).
 1st derivatives      : Analytical E(r).r(x)/FMM algorithm (CHGder, D1EAlg=3).
                        Cavity 1st derivative terms included.
 Solvent              : Acetonitrile, Eps=  35.688000 Eps(inf)=   1.806874
 ------------------------------------------------------------------------------
 ------------------------------------------------------------------------------
 Atomic radii for non-electrostatic terms: SMD-CDS.
 ------------------------------------------------------------------------------
 Nuclear repulsion after PCM non-electrostatic terms =     1248.4539304081 Hartrees.
 One-electron integrals computed using PRISM.
 NBasis=   478 RedAO= T EigKep=  2.18D-06  NBF=   478
 NBsUse=   478 1.00D-06 EigRej= -1.00D+00 NBFU=   478
 ExpMin= 3.60D-02 ExpMax= 8.59D+03 ExpMxC= 1.30D+03 IAcc=3 IRadAn=         5 AccDes= 0.00D+00
 Harris functional with IExCor= 1009 and IRadAn=       5 diagonalized for initial guess.
 HarFok:  IExCor= 1009 AccDes= 0.00D+00 IRadAn=         5 IDoV= 1 UseB2=F ITyADJ=14
 ICtDFT=  3500011 ScaDFX=  1.000000  1.000000  1.000000  1.000000
 FoFCou: FMM=F IPFlag=           0 FMFlag=      100000 FMFlg1=           0
         NFxFlg=           0 DoJE=T BraDBF=F KetDBF=T FulRan=T
         wScrn=  0.000000 ICntrl=       500 IOpCl=  0 I1Cent=   200000004 NGrid=           0
         NMat0=    1 NMatS0=      1 NMatT0=    0 NMatD0=    1 NMtDS0=    0 NMtDT0=    0
 Petite list used in FoFCou.
 Requested convergence on RMS density matrix=1.00D-08 within 400 cycles.
 Requested convergence on MAX density matrix=1.00D-06.
 Requested convergence on             energy=1.00D-06.
 No special actions if energy rises.
 Inv3:  Mode=1 IEnd=    13700307.
 Iteration    1 A*A^-1 deviation from unit magnitude is 4.22D-15 for   2107.
 Iteration    1 A*A^-1 deviation from orthogonality  is 2.28D-15 for   2136   1477.
 Iteration    1 A^-1*A deviation from unit magnitude is 4.44D-15 for   2107.
 Iteration    1 A^-1*A deviation from orthogonality  is 1.88D-15 for   2131   1998.
 Error on total polarization charges =  0.02556
 SCF Done:  E(RM062X) =  -896.787484782     A.U. after   14 cycles
            NFock= 14  Conv=0.14D-08     -V/T= 2.0035
 SMD-CDS (non-electrostatic) energy       (kcal/mol) =      -1.26
 (included in total energy above)
 QCSCF skips out because SCF is already converged.

 **********************************************************************

            Population analysis using the SCF density.

 **********************************************************************

 Orbital symmetries:
       Occupied  (A) (A) (A) (A) (A) (A) (A) (A) (A) (A) (A) (A)
                 (A) (A) (A) (A) (A) (A) (A) (A) (A) (A) (A) (A)
                 (A) (A) (A) (A) (A) (A) (A) (A) (A) (A) (A) (A)
                 (A) (A) (A) (A) (A) (A) (A) (A) (A) (A) (A) (A)
                 (A) (A) (A) (A) (A) (A) (A) (A) (A) (A) (A) (A)
                 (A) (A) (A) (A)
       Virtual   (A) (A) (A) (A) (A) (A) (A) (A) (A) (A) (A) (A)
                 (A) (A) (A) (A) (A) (A) (A) (A) (A) (A) (A) (A)
                 (A) (A) (A) (A) (A) (A) (A) (A) (A) (A) (A) (A)
                 (A) (A) (A) (A) (A) (A) (A) (A) (A) (A) (A) (A)
                 (A) (A) (A) (A) (A) (A) (A) (A) (A) (A) (A) (A)
                 (A) (A) (A) (A) (A) (A) (A) (A) (A) (A) (A) (A)
                 (A) (A) (A) (A) (A) (A) (A) (A) (A) (A) (A) (A)
                 (A) (A) (A) (A) (A) (A) (A) (A) (A) (A) (A) (A)
                 (A) (A) (A) (A) (A) (A) (A) (A) (A) (A) (A) (A)
                 (A) (A) (A) (A) (A) (A) (A) (A) (A) (A) (A) (A)
                 (A) (A) (A) (A) (A) (A) (A) (A) (A) (A) (A) (A)
                 (A) (A) (A) (A) (A) (A) (A) (A) (A) (A) (A) (A)
                 (A) (A) (A) (A) (A) (A) (A) (A) (A) (A) (A) (A)
                 (A) (A) (A) (A) (A) (A) (A) (A) (A) (A) (A) (A)
                 (A) (A) (A) (A) (A) (A) (A) (A) (A) (A) (A) (A)
                 (A) (A) (A) (A) (A) (A) (A) (A) (A) (A) (A) (A)
                 (A) (A) (A) (A) (A) (A) (A) (A) (A) (A) (A) (A)
                 (A) (A) (A) (A) (A) (A) (A) (A) (A) (A) (A) (A)
                 (A) (A) (A) (A) (A) (A) (A) (A) (A) (A) (A) (A)
                 (A) (A) (A) (A) (A) (A) (A) (A) (A) (A) (A) (A)
                 (A) (A) (A) (A) (A) (A) (A) (A) (A) (A) (A) (A)
                 (A) (A) (A) (A) (A) (A) (A) (A) (A) (A) (A) (A)
                 (A) (A) (A) (A) (A) (A) (A) (A) (A) (A) (A) (A)
                 (A) (A) (A) (A) (A) (A) (A) (A) (A) (A) (A) (A)
                 (A) (A) (A) (A) (A) (A) (A) (A) (A) (A) (A) (A)
                 (A) (A) (A) (A) (A) (A) (A) (A) (A) (A) (A) (A)
                 (A) (A) (A) (A) (A) (A) (A) (A) (A) (A) (A) (A)
                 (A) (A) (A) (A) (A) (A) (A) (A) (A) (A) (A) (A)
                 (A) (A) (A) (A) (A) (A) (A) (A) (A) (A) (A) (A)
                 (A) (A) (A) (A) (A) (A) (A) (A) (A) (A) (A) (A)
                 (A) (A) (A) (A) (A) (A) (A) (A) (A) (A) (A) (A)
                 (A) (A) (A) (A) (A) (A) (A) (A) (A) (A) (A) (A)
                 (A) (A) (A) (A) (A) (A) (A) (A) (A) (A) (A) (A)
                 (A) (A) (A) (A) (A) (A) (A) (A) (A) (A) (A) (A)
                 (A) (A) (A) (A) (A) (A)
 The electronic state is 1-A.
 Alpha  occ. eigenvalues --  -19.70517 -19.68436 -19.65376 -19.65106 -19.65089
 Alpha  occ. eigenvalues --  -19.64435 -19.62776 -14.77970 -10.66422 -10.62132
 Alpha  occ. eigenvalues --  -10.61016 -10.60966 -10.60591 -10.60525 -10.59408
 Alpha  occ. eigenvalues --  -10.57461  -1.24316  -1.22824  -1.19508  -1.17190
 Alpha  occ. eigenvalues --   -1.17021  -1.15532  -1.14834  -1.05703  -0.89823
 Alpha  occ. eigenvalues --   -0.87808  -0.87014  -0.82542  -0.75835  -0.71799
 Alpha  occ. eigenvalues --   -0.71312  -0.69181  -0.67773  -0.65329  -0.64290
 Alpha  occ. eigenvalues --   -0.62831  -0.60747  -0.59612  -0.58613  -0.56637
 Alpha  occ. eigenvalues --   -0.55774  -0.54516  -0.53242  -0.52983  -0.52948
 Alpha  occ. eigenvalues --   -0.52390  -0.51292  -0.51069  -0.49215  -0.49102
 Alpha  occ. eigenvalues --   -0.48733  -0.47468  -0.46002  -0.44638  -0.43262
 Alpha  occ. eigenvalues --   -0.42666  -0.42619  -0.42581  -0.41165  -0.39870
 Alpha  occ. eigenvalues --   -0.38795  -0.37374  -0.36339  -0.33797
 Alpha virt. eigenvalues --   -0.00889  -0.00001   0.00408   0.00805   0.01221
 Alpha virt. eigenvalues --    0.02102   0.02316   0.02962   0.03253   0.03302
 Alpha virt. eigenvalues --    0.03700   0.04018   0.05305   0.05357   0.05385
 Alpha virt. eigenvalues --    0.05608   0.05828   0.06617   0.07373   0.07660
 Alpha virt. eigenvalues --    0.08154   0.08516   0.08907   0.09243   0.09627
 Alpha virt. eigenvalues --    0.10387   0.10729   0.11256   0.11444   0.11604
 Alpha virt. eigenvalues --    0.11642   0.11830   0.12731   0.12909   0.13236
 Alpha virt. eigenvalues --    0.13548   0.13843   0.13948   0.14442   0.14794
 Alpha virt. eigenvalues --    0.15092   0.15417   0.15779   0.16256   0.16562
 Alpha virt. eigenvalues --    0.16983   0.17284   0.17413   0.18514   0.19226
 Alpha virt. eigenvalues --    0.19700   0.20240   0.20763   0.21054   0.21310
 Alpha virt. eigenvalues --    0.21626   0.22437   0.22660   0.22807   0.23082
 Alpha virt. eigenvalues --    0.23444   0.23723   0.24228   0.24625   0.24968
 Alpha virt. eigenvalues --    0.25357   0.25720   0.26136   0.26302   0.26857
 Alpha virt. eigenvalues --    0.26979   0.27676   0.27870   0.28583   0.29128
 Alpha virt. eigenvalues --    0.29565   0.29713   0.30133   0.30635   0.30754
 Alpha virt. eigenvalues --    0.31643   0.31980   0.32638   0.32939   0.33122
 Alpha virt. eigenvalues --    0.33224   0.33583   0.34253   0.34644   0.35029
 Alpha virt. eigenvalues --    0.35251   0.35688   0.36165   0.36313   0.36580
 Alpha virt. eigenvalues --    0.37191   0.37622   0.38431   0.38734   0.39097
 Alpha virt. eigenvalues --    0.39383   0.40291   0.41062   0.41689   0.42423
 Alpha virt. eigenvalues --    0.43136   0.44279   0.45749   0.46885   0.48227
 Alpha virt. eigenvalues --    0.48712   0.48952   0.49298   0.49986   0.50649
 Alpha virt. eigenvalues --    0.51748   0.52305   0.55768   0.56194   0.56946
 Alpha virt. eigenvalues --    0.57460   0.59092   0.59682   0.60370   0.61290
 Alpha virt. eigenvalues --    0.61732   0.62867   0.63612   0.64009   0.64537
 Alpha virt. eigenvalues --    0.65529   0.66319   0.66705   0.67493   0.67556
 Alpha virt. eigenvalues --    0.67816   0.68842   0.69662   0.70871   0.71746
 Alpha virt. eigenvalues --    0.72283   0.72936   0.73360   0.74182   0.75614
 Alpha virt. eigenvalues --    0.75895   0.76156   0.77548   0.78854   0.79413
 Alpha virt. eigenvalues --    0.80798   0.81560   0.82971   0.83352   0.84394
 Alpha virt. eigenvalues --    0.85087   0.87165   0.88274   0.91746   0.93393
 Alpha virt. eigenvalues --    0.95398   0.97774   0.98614   0.99847   1.03245
 Alpha virt. eigenvalues --    1.05356   1.06809   1.07895   1.08064   1.09326
 Alpha virt. eigenvalues --    1.10213   1.10917   1.11426   1.12503   1.14736
 Alpha virt. eigenvalues --    1.15087   1.17700   1.18288   1.19778   1.20546
 Alpha virt. eigenvalues --    1.21559   1.22110   1.24531   1.25245   1.26311
 Alpha virt. eigenvalues --    1.26689   1.26984   1.27482   1.27732   1.27954
 Alpha virt. eigenvalues --    1.28813   1.30099   1.30994   1.32443   1.33445
 Alpha virt. eigenvalues --    1.35760   1.36494   1.38368   1.40659   1.41439
 Alpha virt. eigenvalues --    1.42141   1.43930   1.45283   1.47361   1.47899
 Alpha virt. eigenvalues --    1.48473   1.50820   1.52461   1.52636   1.53101
 Alpha virt. eigenvalues --    1.53615   1.54255   1.55727   1.56808   1.57012
 Alpha virt. eigenvalues --    1.58405   1.59153   1.59605   1.60580   1.60871
 Alpha virt. eigenvalues --    1.62705   1.63102   1.63942   1.64593   1.65543
 Alpha virt. eigenvalues --    1.67411   1.68294   1.68829   1.70488   1.71712
 Alpha virt. eigenvalues --    1.72279   1.73648   1.74224   1.76134   1.77178
 Alpha virt. eigenvalues --    1.78151   1.79107   1.81378   1.82212   1.82905
 Alpha virt. eigenvalues --    1.83219   1.87091   1.87816   1.88257   1.88980
 Alpha virt. eigenvalues --    1.89130   1.90779   1.91321   1.92805   1.94130
 Alpha virt. eigenvalues --    1.95419   1.98484   1.99557   2.00258   2.01192
 Alpha virt. eigenvalues --    2.01241   2.05415   2.06277   2.07657   2.08687
 Alpha virt. eigenvalues --    2.09586   2.09721   2.10055   2.11705   2.13305
 Alpha virt. eigenvalues --    2.15319   2.16175   2.18218   2.19853   2.22115
 Alpha virt. eigenvalues --    2.22781   2.22981   2.24636   2.25217   2.26098
 Alpha virt. eigenvalues --    2.28594   2.29655   2.32591   2.34213   2.36251
 Alpha virt. eigenvalues --    2.37373   2.44536   2.46425   2.46997   2.52459
 Alpha virt. eigenvalues --    2.52532   2.54774   2.55783   2.56947   2.57888
 Alpha virt. eigenvalues --    2.59141   2.59196   2.60953   2.61654   2.63521
 Alpha virt. eigenvalues --    2.65585   2.66386   2.68563   2.69158   2.70031
 Alpha virt. eigenvalues --    2.71088   2.75726   2.79414   2.80735   2.82004
 Alpha virt. eigenvalues --    2.83500   2.84469   2.86368   2.87889   2.87957
 Alpha virt. eigenvalues --    2.89488   2.92372   2.93198   2.94061   2.96175
 Alpha virt. eigenvalues --    2.96222   2.97086   2.98396   2.99404   3.02839
 Alpha virt. eigenvalues --    3.05128   3.06897   3.08605   3.10736   3.14365
 Alpha virt. eigenvalues --    3.15241   3.17764   3.18988   3.19550   3.20242
 Alpha virt. eigenvalues --    3.22065   3.23209   3.25232   3.25999   3.27128
 Alpha virt. eigenvalues --    3.27448   3.28516   3.29852   3.30591   3.31874
 Alpha virt. eigenvalues --    3.33265   3.36128   3.37891   3.39688   3.40859
 Alpha virt. eigenvalues --    3.42599   3.44110   3.48914   3.54919   3.63652
 Alpha virt. eigenvalues --    3.66134   3.83802   3.84900   3.85460   3.86589
 Alpha virt. eigenvalues --    3.88249   3.91184   3.92651   3.93959   3.94592
 Alpha virt. eigenvalues --    3.97440   3.99476   3.99941   4.03469   4.05022
 Alpha virt. eigenvalues --    4.06479   4.06846   4.08098   4.08651   4.11587
 Alpha virt. eigenvalues --    4.17450   4.22658   4.25297   4.27752   4.34558
 Alpha virt. eigenvalues --    4.43539   4.79979   5.15851   5.18171   5.22232
 Alpha virt. eigenvalues --    5.24098   5.26378   5.26679   5.32426   5.43894
 Alpha virt. eigenvalues --    5.49064   5.53728   5.57248   5.58640   5.61788
 Alpha virt. eigenvalues --    5.69054   5.72445   5.75010   5.76755   5.80179
 Alpha virt. eigenvalues --    5.82245   5.91778   5.94160  23.79853  23.87756
 Alpha virt. eigenvalues --   23.91225  23.94070  23.95038  23.97664  23.99974
 Alpha virt. eigenvalues --   24.41575  35.94386  49.97738  50.01767  50.02072
 Alpha virt. eigenvalues --   50.05416  50.08234  50.11427  50.13851
          Condensed to atoms (all electrons):
               1          2          3          4          5          6
     1  C   11.017247  -3.645373   2.336878  -3.210476   0.326028  -1.396909
     2  C   -3.645373  10.877478  -3.644842   2.777620  -0.197101   0.489203
     3  C    2.336878  -3.644842  12.320581  -5.585442   0.156524   0.013091
     4  C   -3.210476   2.777620  -5.585442  15.970014  -0.067714   0.281502
     5  O    0.326028  -0.197101   0.156524  -0.067714   8.133180  -0.108814
     6  C   -1.396909   0.489203   0.013091   0.281502  -0.108814   6.350330
     7  C    0.051797  -0.477044   0.120524  -3.297092  -0.191517  -0.013289
     8  O   -0.019728  -0.067167   0.097802  -0.093126   0.014855   0.131542
     9  O   -0.205440   0.424626  -0.103252  -0.187317   0.014040   0.013839
    10  O    0.027076   0.011944  -0.013977  -0.043680  -0.029544   0.004239
    11  O   -0.004299  -0.134815   0.504835  -0.238577   0.007961  -0.001065
    12  O    0.006827  -0.028192   0.006403  -0.080237  -0.019963  -0.006028
    13  H   -0.084162  -0.008276   0.022144  -0.023159  -0.019649   0.455176
    14  H   -0.021407   0.003148   0.004078  -0.018649   0.019180   0.425571
    15  H   -0.081903   0.025719  -0.005435   0.010467   0.002614   0.073414
    16  H    0.507807  -0.172478   0.057526  -0.028814  -0.033103  -0.077771
    17  H    0.092298   0.238310   0.113258  -0.175859  -0.003181  -0.036405
    18  H   -0.075315   0.113246  -0.106931   0.103468  -0.001335   0.000090
    19  H    0.030771  -0.071222   0.407347  -0.040851   0.023651   0.012088
    20  H    0.087810   0.007139  -0.065784   0.071847   0.004739  -0.040525
    21  H    0.020267  -0.029648   0.001677   0.047481  -0.009059  -0.009370
    22  H   -0.026489   0.005968  -0.042461  -0.004621   0.011472   0.004708
    23  H    0.055429  -0.042881   0.007392  -0.104177  -0.018525  -0.018776
    24  H    0.008973  -0.001628  -0.022187   0.045277   0.013813  -0.000948
    25  H   -0.021553   0.015462  -0.033952  -0.012794  -0.007911   0.002437
    26  O    0.009799  -0.003770  -0.051703   0.195785   0.001038  -0.000150
    27  H   -0.015823   0.001872   0.017258  -0.213040  -0.002267   0.001180
    28  H    0.003567  -0.001934   0.032480   0.006303   0.000170  -0.000825
    29  N   -0.000050   0.000327  -0.000513   0.013103   0.000299   0.000064
    30  C   -0.000364   0.000184  -0.004912  -0.009328  -0.000151  -0.000010
    31  C   -0.000122  -0.000022  -0.000874  -0.005015  -0.000052  -0.000006
    32  H   -0.000001   0.000001  -0.000004  -0.000016   0.000000   0.000000
    33  H    0.000004  -0.000005   0.000015   0.000046  -0.000000  -0.000000
    34  H   -0.000001   0.000000   0.000018  -0.000082  -0.000001  -0.000000
               7          8          9         10         11         12
     1  C    0.051797  -0.019728  -0.205440   0.027076  -0.004299   0.006827
     2  C   -0.477044  -0.067167   0.424626   0.011944  -0.134815  -0.028192
     3  C    0.120524   0.097802  -0.103252  -0.013977   0.504835   0.006403
     4  C   -3.297092  -0.093126  -0.187317  -0.043680  -0.238577  -0.080237
     5  O   -0.191517   0.014855   0.014040  -0.029544   0.007961  -0.019963
     6  C   -0.013289   0.131542   0.013839   0.004239  -0.001065  -0.006028
     7  C    9.873710   0.004279   0.034688  -0.171301  -0.061709   0.019119
     8  O    0.004279   8.262799   0.005244   0.003045  -0.007631  -0.001341
     9  O    0.034688   0.005244   8.017711   0.026648   0.024955  -0.000102
    10  O   -0.171301   0.003045   0.026648   8.182792   0.026400   0.025638
    11  O   -0.061709  -0.007631   0.024955   0.026400   7.832858  -0.000240
    12  O    0.019119  -0.001341  -0.000102   0.025638  -0.000240   8.173182
    13  H   -0.008244  -0.051784  -0.001335   0.002510   0.003389   0.000664
    14  H    0.007730  -0.071273  -0.001871  -0.001793  -0.001250  -0.000398
    15  H   -0.001136   0.203603  -0.000067  -0.000049   0.001634  -0.000001
    16  H    0.000384   0.009707  -0.006542   0.001847  -0.002999  -0.001785
    17  H   -0.002997   0.006623   0.004079   0.004414  -0.008403   0.000340
    18  H    0.015813   0.000309   0.279388  -0.008651   0.002973   0.000032
    19  H   -0.115811  -0.000565  -0.028218   0.014894  -0.056650  -0.005708
    20  H   -0.051167  -0.037054  -0.001448  -0.002264   0.296044   0.000006
    21  H   -0.005634  -0.000074  -0.010309   0.243928  -0.001694   0.004284
    22  H    0.419785   0.001262  -0.000295  -0.004645  -0.007315  -0.048632
    23  H    0.411665  -0.003326   0.000556   0.012692   0.030515  -0.000974
    24  H   -0.023561   0.000162  -0.000318  -0.006434  -0.001287   0.266773
    25  H    0.051907  -0.000180  -0.001768   0.011319  -0.000818   0.016874
    26  O   -0.188389   0.000000   0.001317  -0.007569  -0.000204  -0.031077
    27  H    0.233069  -0.000089  -0.000129   0.014182  -0.000245   0.033648
    28  H    0.010300   0.000006  -0.000068  -0.010602   0.000378  -0.008297
    29  N   -0.008543   0.000001   0.000003  -0.003143   0.000008  -0.001597
    30  C    0.006013   0.000000  -0.000005   0.002312  -0.000019   0.001967
    31  C    0.001789   0.000000  -0.000001   0.000958  -0.000004   0.001126
    32  H    0.000028   0.000000   0.000000   0.000008  -0.000000  -0.000012
    33  H   -0.000039   0.000000  -0.000000  -0.000010  -0.000000   0.000001
    34  H    0.000124  -0.000000   0.000000  -0.000007   0.000000  -0.000007
              13         14         15         16         17         18
     1  C   -0.084162  -0.021407  -0.081903   0.507807   0.092298  -0.075315
     2  C   -0.008276   0.003148   0.025719  -0.172478   0.238310   0.113246
     3  C    0.022144   0.004078  -0.005435   0.057526   0.113258  -0.106931
     4  C   -0.023159  -0.018649   0.010467  -0.028814  -0.175859   0.103468
     5  O   -0.019649   0.019180   0.002614  -0.033103  -0.003181  -0.001335
     6  C    0.455176   0.425571   0.073414  -0.077771  -0.036405   0.000090
     7  C   -0.008244   0.007730  -0.001136   0.000384  -0.002997   0.015813
     8  O   -0.051784  -0.071273   0.203603   0.009707   0.006623   0.000309
     9  O   -0.001335  -0.001871  -0.000067  -0.006542   0.004079   0.279388
    10  O    0.002510  -0.001793  -0.000049   0.001847   0.004414  -0.008651
    11  O    0.003389  -0.001250   0.001634  -0.002999  -0.008403   0.002973
    12  O    0.000664  -0.000398  -0.000001  -0.001785   0.000340   0.000032
    13  H    0.547598  -0.056027   0.003435  -0.005551   0.005409  -0.001018
    14  H   -0.056027   0.522128  -0.010052  -0.005290  -0.012674   0.001284
    15  H    0.003435  -0.010052   0.417805  -0.001903  -0.002904  -0.000096
    16  H   -0.005551  -0.005290  -0.001903   0.427756   0.007809  -0.000737
    17  H    0.005409  -0.012674  -0.002904   0.007809   0.466393  -0.026102
    18  H   -0.001018   0.001284  -0.000096  -0.000737  -0.026102   0.401672
    19  H    0.001102  -0.001054   0.000313   0.005046  -0.003631  -0.008599
    20  H   -0.006339   0.003389   0.001130   0.001885  -0.012724   0.001853
    21  H   -0.000356  -0.000115   0.000001   0.007730   0.005802  -0.009176
    22  H    0.000027   0.000111   0.000152  -0.000840  -0.001944   0.001001
    23  H    0.000958  -0.001060  -0.001503   0.001533   0.004991  -0.000999
    24  H   -0.001769   0.000260   0.000112   0.000591  -0.000422   0.000067
    25  H   -0.000119   0.000094   0.000025   0.000244   0.000170  -0.000138
    26  O   -0.000006  -0.000020   0.000006  -0.000938  -0.000608   0.000308
    27  H    0.000599   0.000045   0.000005   0.000840   0.000133  -0.000046
    28  H   -0.000016  -0.000034  -0.000004   0.000353   0.000195  -0.000121
    29  N   -0.000005   0.000002   0.000000   0.000022   0.000004  -0.000014
    30  C   -0.000001   0.000001  -0.000000  -0.000030  -0.000016   0.000025
    31  C    0.000000  -0.000000  -0.000000  -0.000006  -0.000005   0.000009
    32  H   -0.000000   0.000000  -0.000000   0.000000  -0.000000  -0.000000
    33  H   -0.000000   0.000000   0.000000  -0.000000  -0.000000   0.000000
    34  H    0.000000  -0.000000  -0.000000   0.000000   0.000000   0.000001
              19         20         21         22         23         24
     1  C    0.030771   0.087810   0.020267  -0.026489   0.055429   0.008973
     2  C   -0.071222   0.007139  -0.029648   0.005968  -0.042881  -0.001628
     3  C    0.407347  -0.065784   0.001677  -0.042461   0.007392  -0.022187
     4  C   -0.040851   0.071847   0.047481  -0.004621  -0.104177   0.045277
     5  O    0.023651   0.004739  -0.009059   0.011472  -0.018525   0.013813
     6  C    0.012088  -0.040525  -0.009370   0.004708  -0.018776  -0.000948
     7  C   -0.115811  -0.051167  -0.005634   0.419785   0.411665  -0.023561
     8  O   -0.000565  -0.037054  -0.000074   0.001262  -0.003326   0.000162
     9  O   -0.028218  -0.001448  -0.010309  -0.000295   0.000556  -0.000318
    10  O    0.014894  -0.002264   0.243928  -0.004645   0.012692  -0.006434
    11  O   -0.056650   0.296044  -0.001694  -0.007315   0.030515  -0.001287
    12  O   -0.005708   0.000006   0.004284  -0.048632  -0.000974   0.266773
    13  H    0.001102  -0.006339  -0.000356   0.000027   0.000958  -0.001769
    14  H   -0.001054   0.003389  -0.000115   0.000111  -0.001060   0.000260
    15  H    0.000313   0.001130   0.000001   0.000152  -0.001503   0.000112
    16  H    0.005046   0.001885   0.007730  -0.000840   0.001533   0.000591
    17  H   -0.003631  -0.012724   0.005802  -0.001944   0.004991  -0.000422
    18  H   -0.008599   0.001853  -0.009176   0.001001  -0.000999   0.000067
    19  H    0.482373   0.012783   0.007130  -0.001640   0.003849  -0.000113
    20  H    0.012783   0.402262  -0.000903   0.000663  -0.004065   0.001383
    21  H    0.007130  -0.000903   0.374590  -0.000532   0.001923   0.001142
    22  H   -0.001640   0.000663  -0.000532   0.396493  -0.022944   0.011833
    23  H    0.003849  -0.004065   0.001923  -0.022944   0.458289  -0.022881
    24  H   -0.000113   0.001383   0.001142   0.011833  -0.022881   0.378104
    25  H    0.003471  -0.000388   0.001913  -0.003002   0.002756  -0.003041
    26  O   -0.003025   0.000954  -0.009709   0.015880  -0.009959   0.015473
    27  H    0.002392  -0.001254  -0.001388  -0.010790   0.011038  -0.023795
    28  H    0.000167  -0.000060   0.003330  -0.004683   0.000892  -0.003213
    29  N    0.000251   0.000001   0.000021  -0.001282   0.000287  -0.000679
    30  C   -0.000160   0.000020  -0.000588  -0.000185   0.000085   0.000459
    31  C   -0.000169   0.000008  -0.000372   0.001026  -0.000385   0.000396
    32  H    0.000002  -0.000000   0.000000  -0.000011  -0.000002   0.000000
    33  H    0.000001   0.000000   0.000001   0.000002  -0.000016   0.000011
    34  H   -0.000008  -0.000000  -0.000002  -0.000000   0.000005  -0.000003
              25         26         27         28         29         30
     1  C   -0.021553   0.009799  -0.015823   0.003567  -0.000050  -0.000364
     2  C    0.015462  -0.003770   0.001872  -0.001934   0.000327   0.000184
     3  C   -0.033952  -0.051703   0.017258   0.032480  -0.000513  -0.004912
     4  C   -0.012794   0.195785  -0.213040   0.006303   0.013103  -0.009328
     5  O   -0.007911   0.001038  -0.002267   0.000170   0.000299  -0.000151
     6  C    0.002437  -0.000150   0.001180  -0.000825   0.000064  -0.000010
     7  C    0.051907  -0.188389   0.233069   0.010300  -0.008543   0.006013
     8  O   -0.000180   0.000000  -0.000089   0.000006   0.000001   0.000000
     9  O   -0.001768   0.001317  -0.000129  -0.000068   0.000003  -0.000005
    10  O    0.011319  -0.007569   0.014182  -0.010602  -0.003143   0.002312
    11  O   -0.000818  -0.000204  -0.000245   0.000378   0.000008  -0.000019
    12  O    0.016874  -0.031077   0.033648  -0.008297  -0.001597   0.001967
    13  H   -0.000119  -0.000006   0.000599  -0.000016  -0.000005  -0.000001
    14  H    0.000094  -0.000020   0.000045  -0.000034   0.000002   0.000001
    15  H    0.000025   0.000006   0.000005  -0.000004   0.000000  -0.000000
    16  H    0.000244  -0.000938   0.000840   0.000353   0.000022  -0.000030
    17  H    0.000170  -0.000608   0.000133   0.000195   0.000004  -0.000016
    18  H   -0.000138   0.000308  -0.000046  -0.000121  -0.000014   0.000025
    19  H    0.003471  -0.003025   0.002392   0.000167   0.000251  -0.000160
    20  H   -0.000388   0.000954  -0.001254  -0.000060   0.000001   0.000020
    21  H    0.001913  -0.009709  -0.001388   0.003330   0.000021  -0.000588
    22  H   -0.003002   0.015880  -0.010790  -0.004683  -0.001282  -0.000185
    23  H    0.002756  -0.009959   0.011038   0.000892   0.000287   0.000085
    24  H   -0.003041   0.015473  -0.023795  -0.003213  -0.000679   0.000459
    25  H    0.344031   0.203498   0.021290   0.006543  -0.001513   0.004862
    26  O    0.203498   8.422074   0.041303  -0.055346   0.098177   0.006172
    27  H    0.021290   0.041303   0.396071   0.028155   0.010104   0.001957
    28  H    0.006543  -0.055346   0.028155   0.428769   0.009395  -0.072406
    29  N   -0.001513   0.098177   0.010104   0.009395   6.802934   0.527606
    30  C    0.004862   0.006172   0.001957  -0.072406   0.527606   6.088599
    31  C    0.006521  -0.009485  -0.000122  -0.067353  -0.009261  -0.755121
    32  H   -0.000014  -0.000016   0.000019   0.000185   0.002973  -0.056881
    33  H   -0.000102   0.000036  -0.000422   0.001991   0.006092  -0.059383
    34  H   -0.000232   0.000028  -0.000085   0.001639   0.005652  -0.052067
              31         32         33         34
     1  C   -0.000122  -0.000001   0.000004  -0.000001
     2  C   -0.000022   0.000001  -0.000005   0.000000
     3  C   -0.000874  -0.000004   0.000015   0.000018
     4  C   -0.005015  -0.000016   0.000046  -0.000082
     5  O   -0.000052   0.000000  -0.000000  -0.000001
     6  C   -0.000006   0.000000  -0.000000  -0.000000
     7  C    0.001789   0.000028  -0.000039   0.000124
     8  O    0.000000   0.000000   0.000000  -0.000000
     9  O   -0.000001   0.000000  -0.000000   0.000000
    10  O    0.000958   0.000008  -0.000010  -0.000007
    11  O   -0.000004  -0.000000  -0.000000   0.000000
    12  O    0.001126  -0.000012   0.000001  -0.000007
    13  H    0.000000  -0.000000  -0.000000   0.000000
    14  H   -0.000000   0.000000   0.000000  -0.000000
    15  H   -0.000000  -0.000000   0.000000  -0.000000
    16  H   -0.000006   0.000000  -0.000000   0.000000
    17  H   -0.000005  -0.000000  -0.000000   0.000000
    18  H    0.000009  -0.000000   0.000000   0.000001
    19  H   -0.000169   0.000002   0.000001  -0.000008
    20  H    0.000008  -0.000000   0.000000  -0.000000
    21  H   -0.000372   0.000000   0.000001  -0.000002
    22  H    0.001026  -0.000011   0.000002  -0.000000
    23  H   -0.000385  -0.000002  -0.000016   0.000005
    24  H    0.000396   0.000000   0.000011  -0.000003
    25  H    0.006521  -0.000014  -0.000102  -0.000232
    26  O   -0.009485  -0.000016   0.000036   0.000028
    27  H   -0.000122   0.000019  -0.000422  -0.000085
    28  H   -0.067353   0.000185   0.001991   0.001639
    29  N   -0.009261   0.002973   0.006092   0.005652
    30  C   -0.755121  -0.056881  -0.059383  -0.052067
    31  C    6.265986   0.411303   0.408027   0.400887
    32  H    0.411303   0.473189  -0.032573  -0.032258
    33  H    0.408027  -0.032573   0.474399  -0.032903
    34  H    0.400887  -0.032258  -0.032903   0.474285
 Mulliken charges:
               1
     1  C    0.226836
     2  C   -0.465847
     3  C   -0.537563
     4  C   -0.082847
     5  O   -0.019677
     6  C   -0.547581
     7  C   -0.645252
     8  O   -0.387902
     9  O   -0.298608
    10  O   -0.313176
    11  O   -0.202725
    12  O   -0.322291
    13  H    0.224806
    14  H    0.215947
    15  H    0.364617
    16  H    0.307709
    17  H    0.337647
    18  H    0.317740
    19  H    0.329791
    20  H    0.330057
    21  H    0.367708
    22  H    0.311926
    23  H    0.247617
    24  H    0.367450
    25  H    0.394108
    26  O   -0.639876
    27  H    0.454334
    28  H    0.690145
    29  N   -0.450726
    30  C    0.371366
    31  C   -0.649661
    32  H    0.234080
    33  H    0.234829
    34  H    0.235017
 Sum of Mulliken charges =   1.00000
 Mulliken charges with hydrogens summed into heavy atoms:
               1
     1  C    0.534545
     2  C   -0.128200
     3  C   -0.207772
     4  C   -0.082847
     5  O   -0.019677
     6  C   -0.106828
     7  C   -0.085708
     8  O   -0.023285
     9  O    0.019133
    10  O    0.054533
    11  O    0.127333
    12  O    0.045159
    26  O    0.898710
    29  N   -0.450726
    30  C    0.371366
    31  C    0.054265
 Electronic spatial extent (au):  <R**2>=           6217.4304
 Charge=              1.0000 electrons
 Dipole moment (field-independent basis, Debye):
    X=             -6.7036    Y=              1.2621    Z=             -0.3283  Tot=              6.8293
 Quadrupole moment (field-independent basis, Debye-Ang):
   XX=             35.0856   YY=            -79.1307   ZZ=            -95.8565
   XY=             -5.1753   XZ=            -15.0157   YZ=              6.2864
 Traceless Quadrupole moment (field-independent basis, Debye-Ang):
   XX=             81.7195   YY=            -32.4968   ZZ=            -49.2226
   XY=             -5.1753   XZ=            -15.0157   YZ=              6.2864
 Octapole moment (field-independent basis, Debye-Ang**2):
  XXX=           -513.1940  YYY=             13.5413  ZZZ=            -20.5553  XYY=             28.1723
  XXY=              5.6306  XXZ=             37.9323  XZZ=            -10.3267  YZZ=             -1.0329
  YYZ=              9.6083  XYZ=             10.6593
 Hexadecapole moment (field-independent basis, Debye-Ang**3):
 XXXX=           -507.1193 YYYY=           -603.4328 ZZZZ=           -604.4079 XXXY=           -398.1064
 XXXZ=           -483.3077 YYYX=              4.2029 YYYZ=             60.2921 ZZZX=            -61.9943
 ZZZY=              8.5199 XXYY=          -1073.1601 XXZZ=          -1132.4521 YYZZ=           -192.9067
 XXYZ=             37.2812 YYXZ=             39.5554 ZZXY=             -1.6883
 N-N= 1.248453930408D+03 E-N=-4.584897535418D+03  KE= 8.936472824675D+02
 D1PCM: PCM CHGder 1st derivatives, ID1Alg=3 FixD1E=F DoIter=F DoCFld=F I1PDM=0.
 Calling FoFJK, ICntrl=      2127 FMM=F ISym2X=0 I1Cent= 0 IOpClX= 0 NMat=1 NMatS=1 NMatT=0.
 ***** Axes restored to original set *****
 -------------------------------------------------------------------
 Center     Atomic                   Forces (Hartrees/Bohr)
 Number     Number              X              Y              Z
 -------------------------------------------------------------------
      1        6          -0.000237638   -0.000162136   -0.000085318
      2        6          -0.000125501   -0.000417624    0.000107618
      3        6          -0.000079631    0.000320531    0.000081084
      4        6          -0.000158587   -0.000064674   -0.000337384
      5        8           0.000099522   -0.000006627    0.000050500
      6        6           0.000046312    0.000091009    0.000042923
      7        6           0.000057242   -0.000186966   -0.000572947
      8        8          -0.000039783    0.000067599    0.000060184
      9        8           0.000203464    0.000240042    0.000027308
     10        8          -0.000699710   -0.000507212   -0.000000783
     11        8           0.000190620   -0.000216382   -0.000038988
     12        8           0.000838065   -0.000327842    0.000990337
     13        1          -0.000063757   -0.000036945    0.000022052
     14        1           0.000000040   -0.000002721   -0.000055273
     15        1          -0.000025320    0.000004687    0.000007743
     16        1           0.000119987    0.000117732    0.000067970
     17        1           0.000006609    0.000104204   -0.000095997
     18        1          -0.000044647   -0.000126026   -0.000085379
     19        1           0.000003885    0.000026350   -0.000091853
     20        1           0.000032700   -0.000001364    0.000077567
     21        1          -0.000059659   -0.000138527   -0.000068491
     22        1          -0.000042628   -0.000001864   -0.000081626
     23        1          -0.000084044    0.000070427    0.000376115
     24        1          -0.000087823    0.000167056   -0.000065255
     25        1           0.000181045   -0.000497894    0.000242525
     26        8           0.001289440    0.000236178   -0.000696392
     27        1           0.000105317    0.001011178   -0.000453374
     28        1          -0.001164549    0.000386188    0.000213755
     29        7           0.001873828   -0.000383693   -0.000009328
     30        6          -0.001896603    0.000299091    0.000088642
     31        6           0.002072958   -0.000353644   -0.000126138
     32        1          -0.000634541    0.000364592    0.000999300
     33        1          -0.000761327    0.000639340   -0.000328774
     34        1          -0.000915284   -0.000714063   -0.000262321
 -------------------------------------------------------------------
 Cartesian Forces:  Max     0.002072958 RMS     0.000496834

 GradGradGradGradGradGradGradGradGradGradGradGradGradGradGradGradGradGrad
 Berny optimization.
 FormGI is forming the generalized inverse of G from B-inverse, IUseBI=4.
 Internal  Forces:  Max     0.002208622 RMS     0.000464023
 Search for a local minimum.
 Step number   1 out of a maximum of  184
 All quantities printed in internal units (Hartrees-Bohrs-Radians)
 Mixed Optimization -- En-DIIS/RFO-DIIS
 Second derivative matrix not updated -- first step.
 ITU=  0
     Eigenvalues ---    0.00230   0.00230   0.00230   0.00230   0.00255
     Eigenvalues ---    0.00257   0.00387   0.00549   0.00629   0.00894
     Eigenvalues ---    0.01160   0.01196   0.01336   0.01346   0.01360
     Eigenvalues ---    0.01413   0.01677   0.02756   0.03053   0.03196
     Eigenvalues ---    0.03792   0.04310   0.04635   0.04665   0.04792
     Eigenvalues ---    0.04921   0.05242   0.05453   0.05591   0.05592
     Eigenvalues ---    0.05714   0.06097   0.06180   0.06238   0.07227
     Eigenvalues ---    0.07822   0.08188   0.08548   0.09321   0.09514
     Eigenvalues ---    0.09699   0.10891   0.11070   0.11507   0.12596
     Eigenvalues ---    0.12645   0.12685   0.13656   0.14150   0.15179
     Eigenvalues ---    0.16000   0.16000   0.16000   0.16000   0.16000
     Eigenvalues ---    0.16000   0.16000   0.16000   0.16000   0.16675
     Eigenvalues ---    0.18248   0.19097   0.22027   0.22049   0.25448
     Eigenvalues ---    0.27400   0.27944   0.30714   0.31317   0.34369
     Eigenvalues ---    0.34406   0.34441   0.34595   0.34686   0.34701
     Eigenvalues ---    0.34724   0.34733   0.34833   0.35103   0.37205
     Eigenvalues ---    0.38259   0.38758   0.39554   0.41444   0.41706
     Eigenvalues ---    0.42042   0.42296   0.44457   0.45438   0.50748
     Eigenvalues ---    0.52678   0.53005   0.53298   0.54246   0.54779
     Eigenvalues ---    1.37874
 RFO step:  Lambda=-7.70275256D-04 EMin= 2.30000000D-03
 Linear search not attempted -- first point.
 Maximum step size (   0.030) exceeded in Quadratic search.
    -- Step size scaled by   0.079
 Iteration  1 RMS(Cart)=  0.02177834 RMS(Int)=  0.00013010
 Iteration  2 RMS(Cart)=  0.00031111 RMS(Int)=  0.00001245
 Iteration  3 RMS(Cart)=  0.00000008 RMS(Int)=  0.00001245
 Variable       Old X    -DE/DX   Delta X   Delta X   Delta X     New X
                                 (Linear)    (Quad)   (Total)
    R1        2.91151  -0.00015   0.00000  -0.00003  -0.00003   2.91148
    R2        2.72641  -0.00013   0.00000  -0.00003  -0.00003   2.72639
    R3        2.85411  -0.00015   0.00000  -0.00004  -0.00004   2.85408
    R4        2.06592  -0.00001   0.00000  -0.00000  -0.00000   2.06591
    R5        2.91010  -0.00010   0.00000  -0.00002  -0.00002   2.91008
    R6        2.69637   0.00004   0.00000   0.00001   0.00001   2.69638
    R7        2.06338  -0.00002   0.00000  -0.00000  -0.00000   2.06338
    R8        2.91349   0.00017   0.00000   0.00004   0.00004   2.91353
    R9        2.64771   0.00028   0.00000   0.00005   0.00005   2.64776
   R10        2.06125  -0.00004   0.00000  -0.00001  -0.00001   2.06124
   R11        2.65673  -0.00002   0.00000  -0.00001  -0.00001   2.65672
   R12        2.86562  -0.00091   0.00000  -0.00023  -0.00023   2.86539
   R13        2.68548   0.00006   0.00000   0.00001   0.00001   2.68550
   R14        2.69299   0.00001   0.00000   0.00000   0.00000   2.69299
   R15        2.06651   0.00001   0.00000   0.00000   0.00000   2.06651
   R16        2.06712   0.00001   0.00000   0.00000   0.00000   2.06712
   R17        2.72164  -0.00125   0.00000  -0.00025  -0.00025   2.72139
   R18        2.05948  -0.00003   0.00000  -0.00001  -0.00001   2.05947
   R19        2.05507   0.00008   0.00000   0.00002   0.00002   2.05509
   R20        1.82029  -0.00002   0.00000  -0.00000  -0.00000   1.82028
   R21        1.82509  -0.00014   0.00000  -0.00002  -0.00002   1.82506
   R22        1.83649  -0.00013   0.00000  -0.00002  -0.00002   1.83648
   R23        1.83955  -0.00001   0.00000  -0.00000  -0.00000   1.83955
   R24        1.83377  -0.00008   0.00000  -0.00001  -0.00001   1.83376
   R25        2.65757   0.00065   0.00000   0.00036   0.00036   2.65792
   R26        1.85818  -0.00024   0.00000  -0.00004  -0.00004   1.85814
   R27        1.99967  -0.00007   0.00000  -0.00001  -0.00001   1.99965
   R28        1.92612   0.00155   0.00000   0.00027   0.00027   1.92639
   R29        2.98366   0.00035   0.00000   0.00029   0.00029   2.98395
   R30        2.16442   0.00213   0.00000   0.00012   0.00012   2.16454
   R31        2.73991   0.00031   0.00000   0.00006   0.00006   2.73997
   R32        2.06111  -0.00039   0.00000  -0.00009  -0.00009   2.06102
   R33        2.06163  -0.00056   0.00000  -0.00013  -0.00013   2.06150
   R34        2.06187  -0.00067   0.00000  -0.00015  -0.00015   2.06172
    A1        1.84438   0.00007   0.00000   0.00003   0.00003   1.84442
    A2        2.00821  -0.00014   0.00000  -0.00010  -0.00010   2.00811
    A3        1.90473  -0.00000   0.00000  -0.00003  -0.00003   1.90470
    A4        1.90311  -0.00005   0.00000  -0.00005  -0.00005   1.90306
    A5        1.90637   0.00007   0.00000   0.00013   0.00013   1.90649
    A6        1.89494   0.00007   0.00000   0.00003   0.00003   1.89497
    A7        1.80558  -0.00006   0.00000   0.00006   0.00006   1.80564
    A8        1.86505   0.00005   0.00000   0.00003   0.00003   1.86508
    A9        1.96633   0.00000   0.00000  -0.00003  -0.00003   1.96630
   A10        1.92561   0.00009   0.00000   0.00007   0.00007   1.92567
   A11        1.95182   0.00004   0.00000   0.00002   0.00002   1.95184
   A12        1.94318  -0.00011   0.00000  -0.00013  -0.00013   1.94305
   A13        1.74307   0.00010   0.00000   0.00003   0.00003   1.74311
   A14        1.97149  -0.00011   0.00000  -0.00008  -0.00008   1.97140
   A15        1.95484  -0.00000   0.00000   0.00001   0.00001   1.95485
   A16        1.96215  -0.00004   0.00000  -0.00004  -0.00004   1.96211
   A17        1.94211  -0.00002   0.00000   0.00001   0.00001   1.94212
   A18        1.88881   0.00008   0.00000   0.00006   0.00006   1.88887
   A19        1.81824  -0.00019   0.00000   0.00007   0.00007   1.81831
   A20        2.01367   0.00030   0.00000   0.00013   0.00013   2.01379
   A21        1.92698   0.00054   0.00000   0.00031   0.00031   1.92729
   A22        1.88017   0.00011   0.00000  -0.00000  -0.00000   1.88017
   A23        1.93359   0.00013   0.00000   0.00005   0.00005   1.93364
   A24        1.88987  -0.00086   0.00000  -0.00053  -0.00053   1.88933
   A25        1.91934   0.00008   0.00000   0.00001   0.00001   1.91935
   A26        1.89627  -0.00019   0.00000  -0.00007  -0.00007   1.89620
   A27        1.90807  -0.00001   0.00000  -0.00002  -0.00002   1.90805
   A28        1.89411   0.00006   0.00000   0.00003   0.00003   1.89414
   A29        1.92658   0.00008   0.00000   0.00002   0.00002   1.92660
   A30        1.93450   0.00006   0.00000   0.00003   0.00003   1.93453
   A31        1.90385  -0.00000   0.00000   0.00002   0.00002   1.90388
   A32        1.93314  -0.00221   0.00000  -0.00083  -0.00083   1.93231
   A33        1.92782   0.00030   0.00000  -0.00021  -0.00021   1.92762
   A34        1.91803   0.00087   0.00000   0.00060   0.00060   1.91863
   A35        1.86328   0.00046   0.00000  -0.00023  -0.00023   1.86305
   A36        1.90140   0.00094   0.00000   0.00064   0.00064   1.90204
   A37        1.91935  -0.00037   0.00000   0.00002   0.00002   1.91936
   A38        1.91511   0.00001   0.00000   0.00001   0.00001   1.91511
[...]
 0000286,-0.00000193,0.00000480,0.00000278,-0.00000185,0.00000497,-0.00
 000997,-0.00000223,0.00000315,0.00000222,0.00000058,-0.00000990,0.0000
 0002,0.00000085,0.00002247,-0.00007708,0.00005361,-0.00001374,-0.00000
 780,-0.00000573,0.00000628,0.00000104,0.00001321,0.00000337,0.00001130
 ,0.00003803,0.00096025,-0.00145322,-0.00141933,0.00669853,0.00829091,-
 0.00225727,-0.00113020,0.00022576,0.00066708,-0.00340397,-0.01463058,0
 .00124120,-0.13349661,0.04707762,-0.00011920,-0.00006359,0.00002871,-0
 .00001229,0.00001293,0.00001643,-0.00002223,-0.00006664,-0.00010558,-0
 .00033300,0.00038423,-0.00005102,0.00023800,-0.00003918,-0.00006538,-0
 .00000783,0.00002111,-0.00000777,-0.00012317,-0.00027298,-0.00039903,0
 .00002685,-0.00001644,0.00000850,0.00008645,0.00007122,0.00001751,0.00
 090000,0.00036035,0.00043961,0.00009954,-0.00001676,0.00008490,0.00119
 278,-0.00112165,0.00095983,0.00000077,-0.00000200,0.00000056,0.0000116
 2,-0.00000459,0.00000161,-0.00000450,0.00000334,-0.00000472,0.00000723
 ,0.00001290,-0.00000349,0.00001472,0.00000698,-0.00000266,0.00000316,-
 0.00001802,-0.00001033,0.00000377,0.00000403,0.00000127,-0.00002933,0.
 00001032,0.00000245,0.00003795,-0.00016953,0.00011842,0.00002190,0.000
 02974,-0.00002305,0.00004799,0.00003847,0.00006263,-0.00005245,0.00012
 698,0.00015965,0.00001826,-0.00223895,-0.00098191,0.02129984,-0.002941
 75,0.00008193,-0.00043919,0.00310840,-0.00203983,-0.01107102,0.0012192
 2,-0.01014602,-0.45306247,0.05203184,0.20840207,0.00002974,0.00001715,
 -0.00001234,0.00000354,-0.00000411,-0.00000507,-0.00000042,0.00003000,
 0.00002716,0.00009275,-0.00012465,0.00002994,-0.00006229,0.00001424,0.
 00001533,-0.00000055,-0.00000571,0.00000057,0.00002880,0.00009835,0.00
 015506,-0.00000365,0.00000367,-0.00000032,-0.00002073,-0.00002559,-0.0
 0000523,-0.00029921,-0.00013327,-0.00017722,-0.00002092,0.00000278,-0.
 00002316,-0.00040219,0.00037255,-0.00032927,-0.00000051,0.00000086,0.0
 0000024,-0.00000284,0.00000168,-0.00000023,-0.00000003,-0.00000144,0.0
 0000039,-0.00000237,-0.00000335,0.00000085,-0.00000325,-0.00000219,0.0
 0000120,-0.00000592,0.00000540,0.00000385,-0.00000388,-0.00000482,-0.0
 0000087,0.00000335,-0.00000196,-0.00000040,-0.00002464,0.00005961,-0.0
 0003457,-0.00000820,-0.00001426,-0.00000556,-0.00001061,-0.00001766,-0
 .00002892,0.00000643,-0.00003867,-0.00005404,0.00007469,0.00075895,0.0
 0044271,-0.00667471,0.00084427,0.00191574,0.00025488,-0.00100989,0.000
 73615,0.00877942,-0.00101817,-0.00318934,-1.14888669,0.12627648,0.4289
 3461,1.44534482,-0.00000490,-0.00000317,0.00000153,0.00000102,0.000001
 29,0.00000063,-0.00000072,-0.00000134,-0.00000302,-0.00001600,0.000027
 36,0.00000197,0.00000584,-0.00000603,-0.00000341,-0.00000067,0.0000018
 2,-0.00000109,-0.00000597,-0.00001745,-0.00001124,0.00000085,-0.000001
 81,0.00000036,0.00000591,-0.00000065,0.00000129,0.00004483,-0.00000535
 ,0.00001689,0.00000382,-0.00000421,0.00000295,0.00004708,-0.00005011,0
 .00004738,0.00000086,-0.00000042,-0.00000034,0.00000014,0.00000003,0.0
 0000045,-0.00000025,0.00000047,-0.00000043,0.00000163,0.00000026,-0.00
 000076,0.00000076,-0.00000014,0.00000003,-0.00000128,0.00000064,-0.000
 00130,-0.00000090,-0.00000053,0.00000043,-0.00000092,0.00000250,0.0000
 0060,0.00000046,0.00000108,0.00000617,0.00000535,0.00000634,-0.0000020
 1,0.00000388,0.00000321,-0.00000042,-0.00000611,0.00001281,0.00000270,
 -0.00002675,-0.00000848,-0.00004000,0.00077993,-0.00025437,-0.00020849
 ,-0.00004761,0.00016552,-0.00012090,-0.00092461,0.00057875,0.00037533,
 0.12612852,-0.06048145,-0.04905007,-0.15133554,0.13882910,-0.00001575,
 -0.00000846,0.00000456,0.00000110,-0.00000196,0.00000424,-0.00000604,-
 0.00000753,-0.00001219,-0.00004637,0.00005591,0.00000104,0.00002673,-0
 .00000961,-0.00001536,0.00000061,0.00000246,0.00000108,-0.00002447,-0.
 00003754,-0.00004672,0.00000343,0.00000030,-0.00000225,0.00001028,0.00
 001212,-0.00000064,0.00011400,0.00003704,0.00005959,0.00001610,-0.0000
 0017,0.00000890,0.00016616,-0.00013429,0.00011817,-0.00000014,-0.00000
 042,-0.00000036,0.00000197,-0.00000022,0.00000062,-0.00000066,-0.00000
 036,0.00000021,0.00000222,0.00000151,-0.00000066,0.00000157,0.00000084
 ,-0.00000046,0.00000029,-0.00000331,-0.00000056,0.00000113,-0.00000126
 ,0.00000098,-0.00000562,0.00000216,0.00000185,0.00000662,-0.00002628,0
 .00002436,0.00000284,0.00000533,-0.00001001,0.00000566,0.00000624,0.00
 001283,-0.00000043,0.00001175,0.00002376,-0.00004607,-0.00023095,-0.00
 021149,0.00263685,-0.00034309,-0.00076881,-0.00012592,0.00033467,-0.00
 029696,-0.00318874,0.00040664,0.00173609,0.42896088,-0.04909089,-0.212
 90287,-0.51598734,0.05874945,0.32167985,0.00001644,0.00000864,-0.00000
 395,0.00000100,-0.00000002,-0.00000306,0.00000533,0.00000492,0.0000134
 7,0.00004185,-0.00004462,0.00000084,-0.00003304,0.00000386,0.00001251,
 0.00000063,-0.00000267,0.00000103,0.00002188,0.00002854,0.00003994,-0.
 00000447,0.00000176,-0.00000021,-0.00001178,-0.00000864,-0.00000079,-0
 .00010265,-0.00002936,-0.00003835,-0.00001504,0.00000239,-0.00001028,-
 0.00012810,0.00010802,-0.00008773,0.,0.00000028,-0.00000016,-0.0000015
 6,0.00000053,-0.00000030,0.00000057,-0.00000003,0.00000049,-0.00000163
 ,-0.00000161,0.00000059,-0.00000195,-0.00000098,0.00000046,0.00000089,
 0.00000214,0.00000022,-0.00000018,0.00000053,0.00000007,0.00000542,-0.
 00000188,-0.00000078,-0.00000099,0.00001999,-0.00001426,-0.00000154,-0
 .00000209,0.00000468,-0.00000643,-0.00000354,-0.00000616,0.00000475,-0
 .00001396,-0.00002279,0.00014317,0.00019735,0.00006967,-0.00087001,0.0
 0007339,0.00002497,0.00021634,-0.00031418,0.00014445,0.00198931,-0.000
 05958,-0.00016100,-0.00632383,0.00311597,0.01077302,-0.25243172,0.0201
 7932,0.06904990,0.51872034,-0.00000148,-0.00000084,0.00000054,-0.00000
 048,-0.00000005,0.00000007,-0.00000077,0.00000038,-0.00000120,-0.00000
 580,0.00000321,-0.00000290,0.00000422,-0.00000118,-0.00000076,0.000000
 10,0.00000029,0.00000013,-0.00000123,-0.00000423,-0.00000546,0.0000005
 2,0.,-0.00000004,0.00000054,0.00000114,-0.00000025,-0.00000290,0.00000
 301,0.00000062,0.00000217,-0.00000011,0.00000061,0.00002552,-0.0000267
 2,0.00001878,-0.00000031,0.00000008,0.00000003,0.00000023,-0.00000022,
 -0.00000008,-0.00000001,-0.00000005,0.00000005,-0.00000021,0.00000030,
 0.00000028,0.00000009,0.00000013,-0.00000005,0.00000006,0.00000002,0.0
 0000059,0.00000039,-0.00000008,-0.00000051,-0.00000072,-0.00000005,0.0
 0000015,-0.00000015,-0.00000408,-0.00000065,0.00000128,0.00000100,0.,0
 .00000032,0.00000049,0.00000270,0.00000036,0.00000027,0.00000490,-0.00
 008896,0.00000928,0.00009306,0.00006390,-0.00050771,-0.00002813,0.0000
 4102,0.00006566,-0.00008959,-0.00004598,0.00147783,-0.00000066,0.00315
 253,0.02098533,-0.00122046,0.02009638,-0.07894420,-0.00774300,0.004408
 52,0.56289126,-0.00000674,-0.00000328,0.00000144,-0.00000200,0.0000011
 2,0.00000085,-0.00000202,-0.00000359,-0.00000460,-0.00001653,0.0000159
 2,-0.00000611,0.00001471,-0.00000076,-0.00000347,-0.00000066,0.0000013
 0,-0.00000114,-0.00000813,-0.00000919,-0.00002081,0.00000193,-0.000001
 13,0.00000096,0.00000548,0.00000289,0.00000076,0.00004014,0.00001378,0
 .00002459,0.00000461,-0.00000080,0.00000450,0.00004353,-0.00003335,0.0
 0003090,0.00000039,-0.00000020,0.00000010,0.00000067,-0.00000054,0.000
 00014,-0.00000019,0.00000015,-0.00000046,0.00000035,0.00000094,-0.0000
 0021,0.00000085,0.00000039,-0.00000040,-0.00000041,-0.00000037,-0.0000
 0022,0.00000037,0.00000081,-0.00000075,-0.00000160,0.,-0.00000016,0.00
 000007,-0.00000868,-0.00000159,0.00000163,-0.00000152,0.00000160,0.000
 00192,0.00000090,0.00000181,-0.00000282,0.00000787,0.00000846,-0.00011
 790,-0.00006956,-0.00001196,0.00023543,-0.00000947,-0.00038511,-0.0001
 3880,0.00010657,-0.00003651,-0.00018490,0.00000569,0.00149993,0.010826
 85,-0.00122527,0.01700266,0.06912432,-0.00773776,-0.10287305,0.0176761
 0,-0.00180471,0.55600303,0.00000591,0.00000326,-0.00000183,0.00000043,
 -0.00000025,-0.00000129,0.00000126,0.00000295,0.00000508,0.00001736,-0
 .00001734,0.00000081,-0.00001204,0.00000165,0.00000449,0.00000015,-0.0
 0000089,-0.00000029,0.00000745,0.00001187,0.00001699,-0.00000141,0.000
 00067,0.00000032,-0.00000392,-0.00000419,-0.00000048,-0.00004055,-0.00
 001517,-0.00001753,-0.00000527,0.00000038,-0.00000342,-0.00005283,0.00
 004607,-0.00003773,0.,0.00000031,0.00000016,-0.00000071,0.00000014,0.,
 0.00000039,-0.00000028,0.00000012,-0.00000049,-0.00000065,0.00000038,-
 0.00000075,-0.00000039,0.00000022,-0.00000011,0.00000143,0.00000054,-0
 .00000004,-0.00000005,-0.00000007,0.00000169,-0.00000035,-0.00000032,-
 0.00000149,0.00000885,-0.00000529,-0.00000045,-0.00000112,0.00000111,-
 0.00000256,-0.00000145,-0.00000251,0.00000163,-0.00000575,-0.00000876,
 0.00005032,0.00008507,0.00002249,-0.00052381,0.00007987,0.00006234,0.0
 0006933,-0.00013252,0.00006662,0.00095419,-0.00012104,-0.00005385,0.00
 134347,-0.00027553,0.00358496,-0.02828908,0.00494489,-0.02358076,-0.15
 606889,0.02533519,-0.13524867,0.17373451,-0.00000019,0.00000004,0.0000
 0002,-0.00000029,0.00000093,-0.00000013,-0.00000049,0.00000020,-0.0000
 0045,-0.00000235,0.00000282,-0.00000004,0.00000090,-0.00000127,-0.0000
 0079,-0.00000012,0.00000047,0.00000009,0.00000035,0.00000039,0.0000002
 1,0.00000022,-0.00000068,-0.00000007,0.00000087,-0.00000110,0.00000015
 ,0.00000319,-0.00000193,0.00000138,0.00000070,-0.00000081,0.00000032,0
 .00000365,-0.00000630,0.00000250,0.00000006,-0.00000013,-0.00000011,0.
 00000002,-0.00000004,0.00000003,0.00000001,0.00000028,0.00000003,0.000
 00004,0.00000013,0.00000002,0.00000010,-0.00000009,0.00000007,-0.00000
 042,0.00000019,-0.00000012,0.00000008,0.00000003,-0.00000002,-0.000000
 23,0.00000044,0.00000017,-0.00000080,0.00000081,0.00000046,-0.00000001
 ,0.00000034,-0.00000016,0.00000017,-0.00000003,-0.00000002,0.00000017,
 0.00000128,0.00000089,-0.00000482,0.00000369,-0.00000662,0.00003499,-0
 .00003070,0.00000148,-0.00000529,0.00001579,-0.00000619,-0.00005806,0.
 00005879,0.00000271,-0.00023029,0.00116073,-0.00015894,0.00280391,-0.0
 0443492,0.00209421,0.02544770,-0.04641394,0.03002488,-0.02844548,0.047
 02610,-0.00000695,-0.00000358,0.00000186,-0.00000069,0.00000062,0.0000
 0150,-0.00000242,-0.00000302,-0.00000601,-0.00002105,0.00002121,-0.000
 00148,0.00001473,-0.00000231,-0.00000565,-0.00000023,0.00000129,-0.000
 00027,-0.00000927,-0.00001306,-0.00001895,0.00000148,-0.00000102,-0.00
 000009,0.00000518,0.00000366,0.00000001,0.00004718,0.00001519,0.000020
 22,0.00000638,-0.00000101,0.00000446,0.00006031,-0.00005236,0.00004301
 ,0.00000007,-0.00000016,0.00000013,0.00000062,-0.00000036,0.00000011,-
 0.00000004,0.00000018,-0.00000018,0.00000051,0.00000065,-0.00000017,0.
 00000081,0.00000036,-0.00000028,-0.00000022,-0.00000084,-0.00000002,0.
 00000019,-0.00000013,-0.00000016,-0.00000212,0.00000078,0.00000039,0.0
 0000088,-0.00000988,0.00000600,0.00000014,0.00000108,-0.00000226,0.000
 00286,0.00000166,0.00000279,-0.00000192,0.00000699,0.00001010,-0.00006
 625,-0.00009380,-0.00002577,0.00054662,-0.00008887,-0.00009582,-0.0000
 8955,0.00015435,-0.00007254,-0.00101626,0.00013413,0.00019688,0.003189
 00,-0.00009621,-0.00415553,0.00826241,-0.00240167,0.01525991,-0.136999
 88,0.03030577,-0.20989348,0.14557736,-0.03230535,0.22144404,0.00000678
 ,0.00000353,-0.00000174,0.00000099,-0.00000124,-0.00000105,0.00000190,
 0.00000359,0.00000639,0.00002123,-0.00002667,0.00000450,-0.00001391,0.
 00000368,0.00000382,0.00000042,-0.00000149,0.00000056,0.00000864,0.000
 01601,0.00002440,-0.00000162,0.00000130,-0.00000073,-0.00000536,-0.000
 00398,-0.00000137,-0.00005393,-0.00001566,-0.00002805,-0.00000564,0.00
 000144,-0.00000559,-0.00006385,0.00005491,-0.00004866,-0.00000004,0.00
 000021,0.00000004,-0.00000071,0.00000028,-0.00000013,0.00000033,-0.000
 00038,0.00000026,-0.00000042,-0.00000061,0.00000020,-0.00000091,-0.000
 00035,0.00000019,-0.00000016,0.00000128,0.00000086,-0.00000027,-0.0000
 0039,-0.00000006,0.00000135,-0.00000064,0.,-0.00000160,0.00001088,-0.0
 0000530,0.00000093,-0.00000269,0.00000202,-0.00000311,-0.00000189,-0.0
 0000365,0.00000113,-0.00000745,-0.00000943,0.00006723,0.00010960,0.000
 05402,-0.00064269,-0.00001523,0.00018186,0.00012593,-0.00015939,0.0000
 7332,0.00108901,0.00016677,-0.00051557,-0.00171393,0.00431074,-0.00080
 000,-0.01367652,-0.03022962,0.01873586,-0.06070407,-0.05551293,0.03496
 785,0.00695142,0.01750629,-0.00886753,0.06893614,-0.00000508,-0.000002
 55,0.00000124,-0.00000069,0.00000034,0.00000103,-0.00000233,-0.0000015
 3,-0.00000401,-0.00001535,0.00001572,-0.00000099,0.00001092,-0.0000020
 8,-0.00000469,-0.00000022,0.00000117,-0.00000032,-0.00000740,-0.000007
 76,-0.00001128,0.00000114,-0.00000101,-0.00000014,0.00000401,0.0000023
 2,-0.00000021,0.00003332,0.00000970,0.00001534,0.00000483,-0.00000135,
 0.00000319,0.00004152,-0.00003760,0.00002877,0.00000011,-0.00000010,0.
 00000011,0.00000042,-0.00000031,0.00000013,0.00000016,0.00000017,-0.00
 000010,0.00000036,0.00000050,-0.00000013,0.00000054,0.00000024,-0.0000
 0020,-0.00000034,-0.00000049,0.00000025,0.00000014,-0.00000039,-0.0000
 0027,-0.00000173,0.00000099,0.00000046,0.00000039,-0.00000718,0.000004
 05,0.00000021,0.00000044,-0.00000260,0.00000201,0.00000135,0.00000179,
 -0.00000115,0.00000561,0.00000708,-0.00004843,-0.00006342,-0.00002727,
 0.00036866,-0.00003122,-0.00010342,-0.00007703,0.00010874,-0.00004620,
 -0.00066243,-0.00000031,0.00030824,0.00400063,-0.00166027,-0.00044970,
 -0.00321543,0.00676918,-0.00366334,-0.05704133,-0.23853399,0.11896669,
 -0.00017861,-0.00229765,0.00010255,0.06237580,0.25261566,-0.00000131,-
 0.00000064,0.00000052,-0.00000023,-0.00000020,0.00000055,-0.00000086,-
 0.00000045,-0.00000047,-0.00000515,0.00000328,0.00000112,0.00000320,-0
 .00000062,-0.00000265,0.00000006,0.00000031,0.00000074,-0.00000158,0.0
 0000013,0.00000079,0.00000056,-0.00000048,-0.00000101,0.00000116,0.000
 00089,-0.00000046,0.00000735,0.00000218,0.00000219,0.00000165,-0.00000
 031,-0.00000036,0.00000812,-0.00000961,0.00000232,0.00000005,-0.000000
 28,-0.00000021,0.00000025,-0.00000002,-0.00000002,-0.00000016,0.000000
 31,0.00000015,0.00000016,0.00000026,-0.00000019,0.00000016,0.00000009,
 -0.00000001,-0.00000033,-0.00000048,0.00000005,-0.00000020,-0.00000020
 ,0.00000011,-0.00000081,0.00000059,0.00000062,0.00000008,-0.00000178,0
 .00000170,-0.00000058,-0.00000007,-0.00000072,0.00000044,0.,0.00000040
 ,-0.00000004,0.00000183,0.00000239,-0.00000528,-0.00001466,-0.00000520
 ,0.00010803,0.00000385,-0.00006080,-0.00001728,0.00002755,0.00000012,-
 0.00014561,-0.00004755,0.00013108,-0.00065591,-0.00060507,0.00168811,0
 .00592344,0.00838070,-0.01046847,0.03569787,0.11830768,-0.11367118,0.0
 0728616,0.01757052,-0.01032836,-0.04187438,-0.12802772,0.12104126,0.00
 000822,0.00000450,-0.00000198,0.00000026,-0.00000052,-0.00000165,0.000
 00164,0.00000467,0.00000777,0.00002228,-0.00002424,0.00000433,-0.00001
 572,0.00000196,0.00000392,0.00000032,-0.00000144,0.00000051,0.00001160
 ,0.00002008,0.00002916,-0.00000171,0.00000085,-0.00000068,-0.00000490,
 -0.00000562,-0.00000154,-0.00005516,-0.00002015,-0.00002978,-0.0000058
 7,0.00000033,-0.00000575,-0.00007915,0.00006362,-0.00005977,0.,0.00000
 016,-0.00000005,-0.00000084,0.00000031,-0.00000012,0.00000038,-0.00000
 017,0.00000030,-0.00000061,-0.00000081,0.00000027,-0.00000100,-0.00000
 056,0.00000033,-0.00000088,0.00000160,0.00000109,-0.00000053,-0.000000
 54,-0.00000021,0.00000157,-0.00000041,0.00000005,-0.00000270,0.0000128
 0,-0.00000517,0.00000128,-0.00000215,0.00000196,-0.00000344,-0.0000025
 6,-0.00000453,0.00000259,-0.00000839,-0.00001160,0.00011403,0.00010880
 ,0.00002842,-0.00070315,0.00019267,0.00021812,0.00011989,-0.00018899,0
 .00010956,0.00113739,-0.00040291,-0.00061265,-0.00387696,-0.00356520,-
 0.00122673,-0.00378750,0.03044678,0.02328412,-0.04446003,0.00252860,0.
 00278420,0.00186487,-0.01705458,-0.01063235,-0.00032471,-0.00558765,-0
 .00632904,0.05003852,0.00000338,0.00000186,-0.00000085,-0.00000011,0.0
 0000097,-0.00000096,0.00000142,0.00000117,0.00000201,0.00000850,-0.000
 00630,-0.00000070,-0.00000658,-0.00000008,0.00000329,-0.00000003,-0.00
 000035,-0.00000008,0.00000510,0.00000407,0.00000516,-0.00000059,-0.000
 00003,0.00000047,-0.00000156,-0.00000235,0.00000080,-0.00001695,-0.000
 00815,-0.00000717,-0.00000292,-0.00000016,-0.00000128,-0.00002249,0.00
 001823,-0.00001336,-0.00000001,0.00000001,-0.00000011,-0.00000028,0.00
 000018,-0.00000006,-0.00000008,0.00000016,0.00000003,-0.00000036,-0.00
 000024,0.00000016,-0.00000025,-0.00000025,0.00000026,-0.00000018,0.000
 00017,-0.00000069,-0.00000033,0.00000047,0.00000029,0.00000133,-0.0000
 0041,-0.00000036,-0.00000072,0.00000523,-0.00000255,-0.00000045,0.0000
 0019,0.00000174,-0.00000097,-0.00000075,-0.00000094,0.00000103,-0.0000
 0257,-0.00000433,0.00002910,0.00004083,0.00000508,-0.00018799,0.000021
 71,0.00006291,0.00003640,-0.00005439,0.00002230,0.00034902,-0.00003652
 ,-0.00016432,-0.00325539,0.00037494,0.00040920,0.00557042,-0.00218576,
 -0.00041792,0.00392063,-0.22100222,-0.13823971,-0.00132152,0.00491614,
 0.00432316,0.00141430,-0.01688293,-0.01559006,-0.00652084,0.23479713,-
 0.00000084,-0.00000055,0.00000049,0.00000031,-0.00000111,0.00000059,-0
 .00000002,-0.00000068,0.00000002,-0.00000182,-0.00000079,0.00000173,0.
 00000136,0.00000072,-0.00000149,0.00000018,-0.00000024,0.00000071,-0.0
 0000152,-0.00000069,0.00000012,0.00000018,0.00000025,-0.00000092,-0.00
 000011,0.00000207,-0.00000028,0.00000103,0.00000392,-0.00000089,0.0000
 0068,0.00000059,-0.00000091,0.00000461,-0.00000364,0.00000119,-0.00000
 003,-0.00000017,-0.00000014,0.00000023,0.00000008,-0.00000004,-0.00000
 018,0.00000006,0.00000012,0.00000016,0.00000012,-0.00000026,0.00000009
 ,0.00000020,-0.00000008,0.00000021,-0.00000090,-0.00000016,-0.00000024
 ,0.00000002,0.00000041,-0.00000050,0.00000006,0.00000037,0.00000109,-0
 .00000199,0.00000107,-0.00000051,-0.00000024,-0.00000027,0.00000025,0.
 00000015,0.00000038,-0.00000015,0.00000042,0.00000143,-0.00000647,-0.0
 0000912,0.00000857,0.00006341,-0.00002816,-0.00005411,-0.00000284,0.00
 001290,-0.00000102,-0.00005305,0.00005784,0.00009972,-0.00101409,0.000
 52317,0.00182235,0.00427989,-0.00800592,-0.01132716,0.00383943,-0.1378
 3749,-0.14767051,0.00233267,-0.01722111,-0.01238440,-0.00189291,0.0129
 0165,0.01166591,-0.00755050,0.14960857,0.15783745\\0.00000469,0.000000
 92,-0.00000023,0.00000879,-0.00000405,0.00001280,-0.00001017,0.0000006
 9,0.00000040,0.00000074,0.00000141,0.00000376,-0.00000216,0.00000098,0
 .00000100,0.00000141,0.00000672,-0.00000075,-0.00000820,-0.00000657,-0
 .00000946,-0.00001338,-0.00001112,-0.00000435,0.00000152,-0.00000020,0
 .00001659,0.00000011,-0.00000690,-0.00000058,0.00000764,-0.00001246,-0
 .00000573,0.00000196,0.00000145,-0.00001196,-0.00000296,0.00000288,-0.
 00000161,-0.00000179,0.00000160,0.00000097,-0.00000276,-0.00000465,0.0
 0000095,0.00000668,0.00000589,0.00000651,0.00000036,-0.00000628,0.0000
 0926,0.00000352,-0.00000328,0.00001766,-0.00000066,-0.00000931,0.00000
 650,0.00001077,-0.00001478,0.00001324,0.00000549,-0.00000099,0.0000061
 6,-0.00000230,-0.00000553,-0.00000286,-0.00000571,-0.00000510,-0.00000
 823,-0.00000084,0.00000185,-0.00000815,0.00001064,0.00002162,-0.000000
 91,-0.00000637,0.00000754,-0.00000764,-0.00000577,0.00000033,-0.000000
 43,-0.00000198,0.00000179,-0.00000294,0.00000268,0.00000848,-0.0000034
 4,0.00000176,0.00000462,-0.00000651,-0.00000336,0.00000554,-0.00000514
 ,0.00000163,0.00001057,-0.00000650,-0.00000198,0.00000336,-0.00000716,
 0.,0.00000301,-0.00000123\\\@


 WHERE THERE IS MUCH DESIRE TO LEARN, THERE OF NECESSITY WILL BE
 MUCH ARGUING, MUCH WRITING, MANY OPINIONS; FOR OPINION IN GOOD MEN
 IS BUT KNOWLEDGE IN THE MAKING. -- JOHN MILTON.
 Job cpu time:       0 days  7 hours 52 minutes 18.8 seconds.
 Elapsed time:       0 days  0 hours 29 minutes 33.2 seconds.
 File lengths (MBytes):  RWF=    803 Int=      0 D2E=      0 Chk=     28 Scr=      1
 Normal termination of Gaussian 16 at Thu Dec 13 13:31:41 2018.
