 Entering Gaussian System, Link 0=g16
 Initial command:
 /nopt/nrel/apps/gaussian/G16.sandy/g16/l1.exe "/scratch/ykim/gaussianScratch.6076992/Gau-14560.inp" -scrdir="/scratch/ykim/gaussianScratch.6076992/"
 Default linda workers: n0391
 Default is to use  24 SMP processors on each worker.
 Entering Link 1 = /nopt/nrel/apps/gaussian/G16.sandy/g16/l1.exe PID=     14562.
  
 Copyright (c) 1988,1990,1992,1993,1995,1998,2003,2009,2016,
            Gaussian, Inc.  All Rights Reserved.
  
 This is part of the Gaussian(R) 16 program.  It is based on
 the Gaussian(R) 09 system (copyright 2009, Gaussian, Inc.),
 the Gaussian(R) 03 system (copyright 2003, Gaussian, Inc.),
 the Gaussian(R) 98 system (copyright 1998, Gaussian, Inc.),
 the Gaussian(R) 94 system (copyright 1995, Gaussian, Inc.),
 the Gaussian 92(TM) system (copyright 1992, Gaussian, Inc.),
 the Gaussian 90(TM) system (copyright 1990, Gaussian, Inc.),
 the Gaussian 88(TM) system (copyright 1988, Gaussian, Inc.),
 the Gaussian 86(TM) system (copyright 1986, Carnegie Mellon
 University), and the Gaussian 82(TM) system (copyright 1983,
 Carnegie Mellon University). Gaussian is a federally registered
 trademark of Gaussian, Inc.
  
 This software contains proprietary and confidential information,
 including trade secrets, belonging to Gaussian, Inc.
  
 This software is provided under written license and may be
 used, copied, transmitted, or stored only in accord with that
 written license.
  
 The following legend is applicable only to US Government
 contracts under FAR:
  
                    RESTRICTED RIGHTS LEGEND
  
 Use, reproduction and disclosure by the US Government is
 subject to restrictions as set forth in subparagraphs (a)
 and (c) of the Commercial Computer Software - Restricted
 Rights clause in FAR 52.227-19.
  
 Gaussian, Inc.
 340 Quinnipiac St., Bldg. 40, Wallingford CT 06492
  
  
 ---------------------------------------------------------------
 Warning -- This program may not be used in any manner that
 competes with the business of Gaussian, Inc. or will provide
 assistance to any competitor of Gaussian, Inc.  The licensee
 of this program is prohibited from giving any competitor of
 Gaussian, Inc. access to this program.  By using this program,
 the user acknowledges that Gaussian, Inc. is engaged in the
 business of creating and licensing software in the field of
 computational chemistry and represents and warrants to the
 licensee that it is not a competitor of Gaussian, Inc. and that
 it will not use this program in any manner prohibited above.
 ---------------------------------------------------------------
  

 Cite this work as:
 Gaussian 16, Revision A.03,
 M. J. Frisch, G. W. Trucks, H. B. Schlegel, G. E. Scuseria, 
 M. A. Robb, J. R. Cheeseman, G. Scalmani, V. Barone, 
 G. A. Petersson, H. Nakatsuji, X. Li, M. Caricato, A. V. Marenich, 
 J. Bloino, B. G. Janesko, R. Gomperts, B. Mennucci, H. P. Hratchian, 
 J. V. Ortiz, A. F. Izmaylov, J. L. Sonnenberg, D. Williams-Young, 
 F. Ding, F. Lipparini, F. Egidi, J. Goings, B. Peng, A. Petrone, 
 T. Henderson, D. Ranasinghe, V. G. Zakrzewski, J. Gao, N. Rega, 
 G. Zheng, W. Liang, M. Hada, M. Ehara, K. Toyota, R. Fukuda, 
 J. Hasegawa, M. Ishida, T. Nakajima, Y. Honda, O. Kitao, H. Nakai, 
 T. Vreven, K. Throssell, J. A. Montgomery, Jr., J. E. Peralta, 
 F. Ogliaro, M. J. Bearpark, J. J. Heyd, E. N. Brothers, K. N. Kudin, 
 V. N. Staroverov, T. A. Keith, R. Kobayashi, J. Normand, 
 K. Raghavachari, A. P. Rendell, J. C. Burant, S. S. Iyengar, 
 J. Tomasi, M. Cossi, J. M. Millam, M. Klene, C. Adamo, R. Cammi, 
 J. W. Ochterski, R. L. Martin, K. Morokuma, O. Farkas, 
 J. B. Foresman, and D. J. Fox, Gaussian, Inc., Wallingford CT, 2016.
 
 ******************************************
 Gaussian 16:  ES64L-G16RevA.03 25-Dec-2016
                10-Dec-2018 
 ******************************************
 %nprocshared=24
 Will use up to   24 processors via shared memory.
 %mem=24GB
 SetLPE:    new flags="-opt 'Tsnet.Node.lindarsharg: ssh'  -nodelist 'n0391' -env GAUSS_MDEF=3221225472 -env GAUSS_EXEDIR="/nopt/nrel/apps/gaussian/G16.sandy/g16/bsd:/nopt/nrel/apps/gaussian/G16.sandy/g16/local:/nopt/nrel/apps/gaussian/G16.sandy/g16/extras:/nopt/nrel/apps/gaussian/G16.sandy/g16""
 Will use up to    1 processors via Linda.
 Default route: CacheSize=327680 MaxDisk=128GB
 ----------------------------------------------------------------------
 # opt freq m062x/6-311++g(d,p) scrf=(solvent=dmso,smd) scf=(xqc,maxcon
 ventionalcycles=400) temperature=443.15
 ----------------------------------------------------------------------
 1/4=327680,18=20,19=15,26=3,38=1,112=443150/1,3;
 2/4=327680,9=110,12=2,17=6,18=5,40=1/2;
 3/4=327680,5=4,6=6,7=1111,11=2,25=1,30=1,70=32201,71=1,72=21,74=-55/1,2,3;
 4/4=327680/1;
 5/4=327680,5=2,8=3,13=1,38=5,53=21,85=400/2,8;
 6/4=327680,7=2,8=2,9=2,10=2,28=1/1;
 7/4=327680/1,2,3,16;
 1/4=327680,18=20,19=15,26=3/3(2);
 2/4=327680,9=110/2;
 99/4=327680/99;
 2/4=327680,9=110/2;
 3/4=327680,5=4,6=6,7=1111,11=2,25=1,30=1,70=32205,71=1,72=21,74=-55/1,2,3;
 4/4=327680,5=5,16=3,69=1/1;
 5/4=327680,5=2,8=3,13=1,38=5,53=21,85=400/2,8;
 7/4=327680/1,2,3,16;
 1/4=327680,18=20,19=15,26=3/3(-5);
 2/4=327680,9=110/2;
 6/4=327680,7=2,8=2,9=2,10=2,19=2,28=1/1;
 99/4=327680,9=1/99;
 -------------------
 Title Card Required
 -------------------
 Symbolic Z-matrix:
 Charge =  1 Multiplicity = 1
 C                     1.16535   0.354    -1.06178 
 C                     1.43105   1.14106   0.23538 
 C                     0.59568   0.39292   1.29473 
 C                    -0.58914  -0.04518   0.4102 
 O                    -0.04136  -0.4051   -0.80305 
 C                     2.2647   -0.58921  -1.4945 
 C                    -1.45959  -1.17481   0.93187 
 O                     2.62408  -1.39272  -0.3822 
 O                     0.87102   2.441     0.02968 
 O                    -1.45886   1.14176   0.22724 
 O                     1.22962  -0.69936   1.86943 
 O                    -2.33023  -1.66518  -0.08195 
 H                     1.89756  -1.20446  -2.32062 
 H                     3.11566   0.00546  -1.84182 
 H                     3.32424  -2.00902  -0.61447 
 H                     0.96417   1.05952  -1.87144 
 H                     2.48882   1.18879   0.49779 
 H                     1.2292    3.06925   0.66575 
 H                     0.27006   1.06184   2.09337 
 H                     1.7943   -1.1365    1.20969 
 H                    -0.90646   1.92416   0.00581 
 H                    -2.08202  -0.81725   1.75234 
 H                    -0.80502  -1.96242   1.30368 
 H                    -1.81873  -2.19018  -0.7082 
 H                    -3.05015   0.71762  -0.77378 
 O                    -3.84156   0.36037  -1.24933 
 H                    -3.782    -0.60564  -1.05141 
 H                    -4.71762   0.70579  -1.04123 
 O                    -6.62561   1.27494  -0.63507 
 C                    -8.56016   3.34134  -1.19218 
 H                    -8.63172   3.35748  -0.1247 
 H                    -8.31005   4.31906  -1.54771 
 H                    -9.49882   3.0399   -1.60805 
 C                    -6.78491   2.0764   -3.40186 
 H                    -5.83877   2.56035  -3.52638 
 H                    -6.69963   1.04815  -3.68529 
 H                    -7.51528   2.557    -4.0187 
 S                    -7.28857   2.18296  -1.68749 
 
 Add virtual bond connecting atoms H25        and O10        Dist= 3.64D+00.
 Add virtual bond connecting atoms H27        and O12        Dist= 3.86D+00.
 Add virtual bond connecting atoms O29        and H28        Dist= 3.84D+00.

 GradGradGradGradGradGradGradGradGradGradGradGradGradGradGradGradGradGrad
 Berny optimization.
 Initialization pass.
                           ----------------------------
                           !    Initial Parameters    !
                           ! (Angstroms and Degrees)  !
 --------------------------                            --------------------------
 ! Name  Definition              Value          Derivative Info.                !
 --------------------------------------------------------------------------------
 ! R1    R(1,2)                  1.5404         estimate D2E/DX2                !
 ! R2    R(1,5)                  1.4489         estimate D2E/DX2                !
 ! R3    R(1,6)                  1.5118         estimate D2E/DX2                !
 ! R4    R(1,16)                 1.0926         estimate D2E/DX2                !
 ! R5    R(2,3)                  1.5426         estimate D2E/DX2                !
 ! R6    R(2,9)                  1.4303         estimate D2E/DX2                !
 ! R7    R(2,17)                 1.0909         estimate D2E/DX2                !
 ! R8    R(3,4)                  1.5421         estimate D2E/DX2                !
 ! R9    R(3,11)                 1.3875         estimate D2E/DX2                !
 ! R10   R(3,19)                 1.0915         estimate D2E/DX2                !
 ! R11   R(4,5)                  1.379          estimate D2E/DX2                !
 ! R12   R(4,7)                  1.5185         estimate D2E/DX2                !
 ! R13   R(4,10)                 1.4828         estimate D2E/DX2                !
 ! R14   R(6,8)                  1.4184         estimate D2E/DX2                !
 ! R15   R(6,13)                 1.0935         estimate D2E/DX2                !
 ! R16   R(6,14)                 1.0947         estimate D2E/DX2                !
 ! R17   R(7,12)                 1.4235         estimate D2E/DX2                !
 ! R18   R(7,22)                 1.0901         estimate D2E/DX2                !
 ! R19   R(7,23)                 1.0895         estimate D2E/DX2                !
 ! R20   R(8,15)                 0.9613         estimate D2E/DX2                !
 ! R21   R(9,18)                 0.9631         estimate D2E/DX2                !
 ! R22   R(10,21)                0.983          estimate D2E/DX2                !
 ! R23   R(10,25)                1.9272         estimate D2E/DX2                !
 ! R24   R(11,20)                0.9722         estimate D2E/DX2                !
 ! R25   R(12,24)                0.9641         estimate D2E/DX2                !
 ! R26   R(12,27)                2.0421         estimate D2E/DX2                !
 ! R27   R(25,26)                0.99           estimate D2E/DX2                !
 ! R28   R(26,27)                0.9879         estimate D2E/DX2                !
 ! R29   R(26,28)                0.9644         estimate D2E/DX2                !
 ! R30   R(28,29)                2.0321         estimate D2E/DX2                !
 ! R31   R(29,38)                1.54           estimate D2E/DX2                !
 ! R32   R(30,31)                1.07           estimate D2E/DX2                !
 ! R33   R(30,32)                1.07           estimate D2E/DX2                !
 ! R34   R(30,33)                1.07           estimate D2E/DX2                !
 ! R35   R(30,38)                1.79           estimate D2E/DX2                !
 ! R36   R(34,35)                1.07           estimate D2E/DX2                !
 ! R37   R(34,36)                1.07           estimate D2E/DX2                !
 ! R38   R(34,37)                1.07           estimate D2E/DX2                !
 ! R39   R(34,38)                1.79           estimate D2E/DX2                !
 ! A1    A(2,1,5)              105.128          estimate D2E/DX2                !
 ! A2    A(2,1,6)              115.7472         estimate D2E/DX2                !
 ! A3    A(2,1,16)             109.018          estimate D2E/DX2                !
 ! A4    A(5,1,6)              109.2612         estimate D2E/DX2                !
 ! A5    A(5,1,16)             108.4985         estimate D2E/DX2                !
 ! A6    A(6,1,16)             108.9452         estimate D2E/DX2                !
 ! A7    A(1,2,3)              103.7146         estimate D2E/DX2                !
 ! A8    A(1,2,9)              106.0059         estimate D2E/DX2                !
 ! A9    A(1,2,17)             113.0902         estimate D2E/DX2                !
 ! A10   A(3,2,9)              109.1172         estimate D2E/DX2                !
 ! A11   A(3,2,17)             112.4026         estimate D2E/DX2                !
 ! A12   A(9,2,17)             111.9927         estimate D2E/DX2                !
 ! A13   A(2,3,4)               99.2036         estimate D2E/DX2                !
 ! A14   A(2,3,11)             114.7586         estimate D2E/DX2                !
 ! A15   A(2,3,19)             111.5187         estimate D2E/DX2                !
 ! A16   A(4,3,11)             111.4051         estimate D2E/DX2                !
 ! A17   A(4,3,19)             111.3824         estimate D2E/DX2                !
 ! A18   A(11,3,19)            108.402          estimate D2E/DX2                !
 ! A19   A(3,4,5)              105.8781         estimate D2E/DX2                !
 ! A20   A(3,4,7)              117.046          estimate D2E/DX2                !
 ! A21   A(3,4,10)             107.0979         estimate D2E/DX2                !
 ! A22   A(5,4,7)              109.621          estimate D2E/DX2                !
 ! A23   A(5,4,10)             109.4726         estimate D2E/DX2                !
 ! A24   A(7,4,10)             107.5566         estimate D2E/DX2                !
 ! A25   A(1,5,4)              110.5611         estimate D2E/DX2                !
 ! A26   A(1,6,8)              108.2528         estimate D2E/DX2                !
 ! A27   A(1,6,13)             108.8517         estimate D2E/DX2                !
 ! A28   A(1,6,14)             108.4912         estimate D2E/DX2                !
 ! A29   A(8,6,13)             111.0241         estimate D2E/DX2                !
 ! A30   A(8,6,14)             111.0737         estimate D2E/DX2                !
 ! A31   A(13,6,14)            109.0829         estimate D2E/DX2                !
 ! A32   A(4,7,12)             111.2348         estimate D2E/DX2                !
 ! A33   A(4,7,22)             109.989          estimate D2E/DX2                !
 ! A34   A(4,7,23)             108.0962         estimate D2E/DX2                !
 ! A35   A(12,7,22)            107.4458         estimate D2E/DX2                !
 ! A36   A(12,7,23)            111.1915         estimate D2E/DX2                !
 ! A37   A(22,7,23)            108.8622         estimate D2E/DX2                !
 ! A38   A(6,8,15)             110.9932         estimate D2E/DX2                !
 ! A39   A(2,9,18)             110.6257         estimate D2E/DX2                !
 ! A40   A(4,10,21)            109.591          estimate D2E/DX2                !
 ! A41   A(4,10,25)            111.8526         estimate D2E/DX2                !
 ! A42   A(21,10,25)           121.4772         estimate D2E/DX2                !
 ! A43   A(3,11,20)            109.7703         estimate D2E/DX2                !
 ! A44   A(7,12,24)            109.0095         estimate D2E/DX2                !
 ! A45   A(7,12,27)            126.4556         estimate D2E/DX2                !
 ! A46   A(24,12,27)           110.5702         estimate D2E/DX2                !
 ! A47   A(25,26,27)           102.0307         estimate D2E/DX2                !
 ! A48   A(25,26,28)           119.5549         estimate D2E/DX2                !
 ! A49   A(27,26,28)           111.2097         estimate D2E/DX2                !
 ! A50   A(12,27,26)           130.1917         estimate D2E/DX2                !
 ! A51   A(28,29,38)           115.6428         estimate D2E/DX2                !
 ! A52   A(31,30,32)           109.4713         estimate D2E/DX2                !
 ! A53   A(31,30,33)           109.4712         estimate D2E/DX2                !
 ! A54   A(31,30,38)           109.4712         estimate D2E/DX2                !
 ! A55   A(32,30,33)           109.4712         estimate D2E/DX2                !
 ! A56   A(32,30,38)           109.4712         estimate D2E/DX2                !
 ! A57   A(33,30,38)           109.4712         estimate D2E/DX2                !
 ! A58   A(35,34,36)           109.4713         estimate D2E/DX2                !
 ! A59   A(35,34,37)           109.4712         estimate D2E/DX2                !
 ! A60   A(35,34,38)           109.4712         estimate D2E/DX2                !
 ! A61   A(36,34,37)           109.4712         estimate D2E/DX2                !
 ! A62   A(36,34,38)           109.4712         estimate D2E/DX2                !
 ! A63   A(37,34,38)           109.4712         estimate D2E/DX2                !
 ! A64   A(29,38,30)           119.8865         estimate D2E/DX2                !
 ! A65   A(29,38,34)           119.8865         estimate D2E/DX2                !
 ! A66   A(30,38,34)           120.2269         estimate D2E/DX2                !
 ! A67   L(10,25,26,12,-1)     171.4972         estimate D2E/DX2                !
 ! A68   L(26,28,29,35,-1)     181.3108         estimate D2E/DX2                !
 ! A69   L(10,25,26,12,-2)     179.5793         estimate D2E/DX2                !
 ! A70   L(26,28,29,35,-2)     174.9943         estimate D2E/DX2                !
 ! D1    D(5,1,2,3)             18.4578         estimate D2E/DX2                !
 ! D2    D(5,1,2,9)            -96.422          estimate D2E/DX2                !
 ! D3    D(5,1,2,17)           140.4975         estimate D2E/DX2                !
 ! D4    D(6,1,2,3)           -102.1904         estimate D2E/DX2                !
 ! D5    D(6,1,2,9)            142.9299         estimate D2E/DX2                !
 ! D6    D(6,1,2,17)            19.8493         estimate D2E/DX2                !
 ! D7    D(16,1,2,3)           134.6145         estimate D2E/DX2                !
 ! D8    D(16,1,2,9)            19.7348         estimate D2E/DX2                !
 ! D9    D(16,1,2,17)         -103.3458         estimate D2E/DX2                !
 ! D10   D(2,1,5,4)              6.8437         estimate D2E/DX2                !
 ! D11   D(6,1,5,4)            131.6738         estimate D2E/DX2                !
 ! D12   D(16,1,5,4)          -109.6695         estimate D2E/DX2                !
 ! D13   D(2,1,6,8)             49.9261         estimate D2E/DX2                !
 ! D14   D(2,1,6,13)           170.7091         estimate D2E/DX2                !
 ! D15   D(2,1,6,14)           -70.7061         estimate D2E/DX2                !
 ! D16   D(5,1,6,8)            -68.4624         estimate D2E/DX2                !
 ! D17   D(5,1,6,13)            52.3205         estimate D2E/DX2                !
 ! D18   D(5,1,6,14)           170.9053         estimate D2E/DX2                !
 ! D19   D(16,1,6,8)           173.1594         estimate D2E/DX2                !
 ! D20   D(16,1,6,13)          -66.0576         estimate D2E/DX2                !
 ! D21   D(16,1,6,14)           52.5272         estimate D2E/DX2                !
 ! D22   D(1,2,3,4)            -33.6138         estimate D2E/DX2                !
 ! D23   D(1,2,3,11)            85.1938         estimate D2E/DX2                !
 ! D24   D(1,2,3,19)          -151.0593         estimate D2E/DX2                !
 ! D25   D(9,2,3,4)             79.0291         estimate D2E/DX2                !
 ! D26   D(9,2,3,11)          -162.1633         estimate D2E/DX2                !
 ! D27   D(9,2,3,19)           -38.4165         estimate D2E/DX2                !
 ! D28   D(17,2,3,4)          -156.1101         estimate D2E/DX2                !
 ! D29   D(17,2,3,11)          -37.3025         estimate D2E/DX2                !
 ! D30   D(17,2,3,19)           86.4444         estimate D2E/DX2                !
 ! D31   D(1,2,9,18)          -162.1871         estimate D2E/DX2                !
 ! D32   D(3,2,9,18)            86.6836         estimate D2E/DX2                !
 ! D33   D(17,2,9,18)          -38.4164         estimate D2E/DX2                !
 ! D34   D(2,3,4,5)             39.1342         estimate D2E/DX2                !
 ! D35   D(2,3,4,7)            161.6277         estimate D2E/DX2                !
 ! D36   D(2,3,4,10)           -77.616          estimate D2E/DX2                !
 ! D37   D(11,3,4,5)           -82.1447         estimate D2E/DX2                !
 ! D38   D(11,3,4,7)            40.3488         estimate D2E/DX2                !
 ! D39   D(11,3,4,10)          161.1051         estimate D2E/DX2                !
 ! D40   D(19,3,4,5)           156.6827         estimate D2E/DX2                !
 ! D41   D(19,3,4,7)           -80.8238         estimate D2E/DX2                !
 ! D42   D(19,3,4,10)           39.9325         estimate D2E/DX2                !
 ! D43   D(2,3,11,20)          -34.5176         estimate D2E/DX2                !
 ! D44   D(4,3,11,20)           77.196          estimate D2E/DX2                !
 ! D45   D(19,3,11,20)        -159.9075         estimate D2E/DX2                !
 ! D46   D(3,4,5,1)            -29.6853         estimate D2E/DX2                !
 ! D47   D(7,4,5,1)           -156.7911         estimate D2E/DX2                !
 ! D48   D(10,4,5,1)            85.4519         estimate D2E/DX2                !
 ! D49   D(3,4,7,12)          -167.8588         estimate D2E/DX2                !
 ! D50   D(3,4,7,22)            73.2201         estimate D2E/DX2                !
 ! D51   D(3,4,7,23)           -45.5166         estimate D2E/DX2                !
 ! D52   D(5,4,7,12)           -47.3196         estimate D2E/DX2                !
 ! D53   D(5,4,7,22)          -166.2407         estimate D2E/DX2                !
 ! D54   D(5,4,7,23)            75.0226         estimate D2E/DX2                !
 ! D55   D(10,4,7,12)           71.6265         estimate D2E/DX2                !
 ! D56   D(10,4,7,22)          -47.2946         estimate D2E/DX2                !
 ! D57   D(10,4,7,23)         -166.0313         estimate D2E/DX2                !
 ! D58   D(3,4,10,21)           45.848          estimate D2E/DX2                !
 ! D59   D(3,4,10,25)         -176.4305         estimate D2E/DX2                !
 ! D60   D(5,4,10,21)          -68.5059         estimate D2E/DX2                !
 ! D61   D(5,4,10,25)           69.2156         estimate D2E/DX2                !
 ! D62   D(7,4,10,21)          172.4529         estimate D2E/DX2                !
 ! D63   D(7,4,10,25)          -49.8256         estimate D2E/DX2                !
 ! D64   D(1,6,8,15)          -179.9341         estimate D2E/DX2                !
 ! D65   D(13,6,8,15)           60.6423         estimate D2E/DX2                !
 ! D66   D(14,6,8,15)          -60.9225         estimate D2E/DX2                !
 ! D67   D(4,7,12,24)           74.1861         estimate D2E/DX2                !
 ! D68   D(4,7,12,27)          -61.5841         estimate D2E/DX2                !
 ! D69   D(22,7,12,24)        -165.3805         estimate D2E/DX2                !
 ! D70   D(22,7,12,27)          58.8493         estimate D2E/DX2                !
 ! D71   D(23,7,12,24)         -46.3484         estimate D2E/DX2                !
 ! D72   D(23,7,12,27)         177.8813         estimate D2E/DX2                !
 ! D73   D(4,10,26,27)          20.4892         estimate D2E/DX2                !
 ! D74   D(4,10,26,28)         140.7265         estimate D2E/DX2                !
 ! D75   D(21,10,26,27)        151.9862         estimate D2E/DX2                !
 ! D76   D(21,10,26,28)        -87.7765         estimate D2E/DX2                !
 ! D77   D(7,12,27,26)          28.3427         estimate D2E/DX2                !
 ! D78   D(24,12,27,26)       -106.8755         estimate D2E/DX2                !
 ! D79   D(25,26,27,12)         -5.5279         estimate D2E/DX2                !
 ! D80   D(28,26,27,12)       -134.1134         estimate D2E/DX2                !
 ! D81   D(25,26,29,38)        107.1946         estimate D2E/DX2                !
 ! D82   D(27,26,29,38)       -134.858          estimate D2E/DX2                !
 ! D83   D(28,29,38,30)       -151.6582         estimate D2E/DX2                !
 ! D84   D(28,29,38,34)         28.3418         estimate D2E/DX2                !
 ! D85   D(31,30,38,29)          7.6333         estimate D2E/DX2                !
 ! D86   D(31,30,38,34)       -172.3667         estimate D2E/DX2                !
 ! D87   D(32,30,38,29)        127.6333         estimate D2E/DX2                !
 ! D88   D(32,30,38,34)        -52.3667         estimate D2E/DX2                !
 ! D89   D(33,30,38,29)       -112.3667         estimate D2E/DX2                !
 ! D90   D(33,30,38,34)         67.6333         estimate D2E/DX2                !
 ! D91   D(35,34,38,29)        -75.7981         estimate D2E/DX2                !
 ! D92   D(35,34,38,30)        104.2019         estimate D2E/DX2                !
 ! D93   D(36,34,38,29)         44.2019         estimate D2E/DX2                !
 ! D94   D(36,34,38,30)       -135.7981         estimate D2E/DX2                !
 ! D95   D(37,34,38,29)        164.2019         estimate D2E/DX2                !
 ! D96   D(37,34,38,30)        -15.7981         estimate D2E/DX2                !
 --------------------------------------------------------------------------------
 Trust Radius=3.00D-01 FncErr=1.00D-07 GrdErr=1.00D-06 EigMax=2.50D+02 EigMin=1.00D-04
 Number of steps in this run=    215 maximum allowed number of steps=    228.
 GradGradGradGradGradGradGradGradGradGradGradGradGradGradGradGradGradGrad

                          Input orientation:                          
 ---------------------------------------------------------------------
 Center     Atomic      Atomic             Coordinates (Angstroms)
 Number     Number       Type             X           Y           Z
 ---------------------------------------------------------------------
      1          6           0        1.165349    0.354000   -1.061782
      2          6           0        1.431047    1.141056    0.235380
      3          6           0        0.595683    0.392918    1.294731
      4          6           0       -0.589142   -0.045184    0.410204
      5          8           0       -0.041360   -0.405099   -0.803048
      6          6           0        2.264701   -0.589214   -1.494503
      7          6           0       -1.459593   -1.174814    0.931871
      8          8           0        2.624075   -1.392719   -0.382201
      9          8           0        0.871020    2.441001    0.029676
     10          8           0       -1.458860    1.141764    0.227241
     11          8           0        1.229619   -0.699357    1.869433
     12          8           0       -2.330233   -1.665181   -0.081953
     13          1           0        1.897558   -1.204463   -2.320615
     14          1           0        3.115660    0.005463   -1.841822
     15          1           0        3.324235   -2.009025   -0.614465
     16          1           0        0.964168    1.059518   -1.871437
     17          1           0        2.488824    1.188785    0.497786
     18          1           0        1.229196    3.069247    0.665748
     19          1           0        0.270063    1.061836    2.093374
     20          1           0        1.794297   -1.136499    1.209689
     21          1           0       -0.906461    1.924161    0.005811
     22          1           0       -2.082016   -0.817251    1.752337
     23          1           0       -0.805022   -1.962417    1.303677
     24          1           0       -1.818730   -2.190182   -0.708197
     25          1           0       -3.050155    0.717621   -0.773779
     26          8           0       -3.841559    0.360370   -1.249332
     27          1           0       -3.781995   -0.605643   -1.051413
     28          1           0       -4.717617    0.705795   -1.041229
     29          8           0       -6.625608    1.274942   -0.635071
     30          6           0       -8.560159    3.341336   -1.192179
     31          1           0       -8.631719    3.357483   -0.124697
     32          1           0       -8.310051    4.319059   -1.547711
     33          1           0       -9.498821    3.039899   -1.608052
     34          6           0       -6.784913    2.076400   -3.401861
     35          1           0       -5.838769    2.560348   -3.526382
     36          1           0       -6.699627    1.048152   -3.685290
     37          1           0       -7.515275    2.556999   -4.018704
     38         16           0       -7.288567    2.182965   -1.687488
 ---------------------------------------------------------------------
                    Distance matrix (angstroms):
                    1          2          3          4          5
     1  C    0.000000
     2  C    1.540351   0.000000
     3  C    2.424704   1.542650   0.000000
     4  C    2.324721   2.349232   1.542119   0.000000
     5  O    1.448903   2.374218   2.333095   1.378979   0.000000
     6  C    1.511779   2.584823   3.395590   3.473945   2.414524
     7  C    3.633489   3.768840   2.610289   1.518514   2.369344
     8  O    2.375024   2.867880   3.180405   3.573307   2.873508
     9  O    2.373496   1.430315   2.422977   2.908262   3.102604
    10  O    3.027974   2.889919   2.433403   1.482812   2.337432
    11  O    3.115399   2.469377   1.387524   2.421814   2.973908
    12  O    4.154064   4.703498   3.833016   2.428581   2.710484
    13  H    2.132979   3.500315   4.161398   3.871043   2.588705
    14  H    2.129238   2.905557   4.042075   4.335867   3.348789
    15  H    3.231837   3.772189   4.106015   4.496792   3.733011
    16  H    1.092598   2.159468   3.256495   2.973050   2.073076
    17  H    2.209232   1.090884   2.202841   3.317262   3.261053
    18  H    3.218851   1.985921   2.821293   3.615430   3.980296
    19  H    3.355231   2.192328   1.091472   2.190157   3.261617
    20  H    2.788681   2.503694   1.945000   2.740607   2.820584
    21  H    2.810259   2.475863   2.502490   2.035324   2.613064
    22  H    4.453816   4.298574   2.973884   2.150833   3.296079
    23  H    3.852732   3.971499   2.740375   2.126189   2.728866
    24  H    3.937336   4.748530   4.063683   2.713618   2.520826
    25  H    4.240948   4.612902   4.204319   2.835537   3.211573
    26  O    5.010424   5.533012   5.114923   3.673792   3.902131
    27  H    5.039567   5.646468   5.066121   3.555946   3.754232
    28  H    5.893511   6.294859   5.812552   4.440150   4.812296
    29  O    7.856795   8.104647   7.526563   6.266918   6.797285
    30  C   10.174806  10.329732   9.935157   8.807569   9.314351
    31  H   10.289878  10.310260   9.795324   8.749132   9.402736
    32  H   10.283045  10.400389  10.139337   9.082537   9.552143
    33  H   11.010767  11.245704  10.831974   9.642275  10.097505
    34  C    8.464591   9.033625   8.908720   7.577634   7.641150
    35  H    7.745960   8.307555   8.327248   7.060034   7.058355
    36  H    8.320006   9.027079   8.857285   7.436833   7.399445
    37  H    9.431322  10.006938   9.934963   8.623103   8.658746
    38  S    8.672100   8.989698   8.617384   7.365274   7.746117
                    6          7          8          9         10
     6  C    0.000000
     7  C    4.483367   0.000000
     8  O    1.418445   4.295418   0.000000
     9  O    3.667107   4.395433   4.235594   0.000000
    10  O    4.452594   2.421371   4.844108   2.674956   0.000000
    11  O    3.521305   2.887376   2.737721   3.657205   3.648896
    12  O    4.926096   1.423486   4.970870   5.207803   2.955306
    13  H    1.093520   4.674399   2.078633   4.457248   4.823058
    14  H    1.094716   5.478993   2.080159   3.804308   5.147663
    15  H    1.978116   5.096280   0.961251   5.122100   5.789122
    16  H    2.133491   4.327285   3.314601   2.351893   3.206599
    17  H    2.679688   4.622232   2.730720   2.098681   3.957223
    18  H    4.373019   5.031149   4.790932   0.963105   3.336634
    19  H    4.424637   3.056698   4.206505   2.553839   2.545195
    20  H    2.798831   3.265953   1.813365   3.878579   4.091298
    21  H    4.315584   3.281339   4.859725   1.851251   0.983016
    22  H    5.430278   1.090150   5.199491   4.722731   2.559684
    23  H    4.374780   1.089505   3.863347   4.880808   3.349949
    24  H    4.455983   1.962084   4.525565   5.406206   3.479427
    25  H    5.520412   3.003405   6.066609   4.357888   1.927215
    26  O    6.184515   3.576059   6.754973   5.307852   2.910000
    27  H    6.062931   3.106593   6.488842   5.665805   3.175743
    28  H    7.115846   4.247886   7.664106   5.949004   3.524001
    29  O    9.124215   5.928265   9.630005   7.615840   5.239905
    30  C   11.520339   8.679011  12.171871   9.552522   7.568442
    31  H   11.669822   8.549705  12.219805   9.548079   7.515529
    32  H   11.658445   9.124678  12.391042   9.503016   7.757865
    33  H   12.311125   9.425720  12.965933  10.515438   8.462398
    34  C    9.624917   7.596753  10.472926   8.397719   6.512355
    35  H    8.928297   7.280428   9.855574   7.594805   5.940174
    36  H    9.372284   7.329237  10.188213   8.547263   6.540819
    37  H   10.579139   8.666367  11.473049   9.313044   7.530678
    38  S    9.949229   7.218910  10.618369   8.342308   6.223807
                   11         12         13         14         15
    11  O    0.000000
    12  O    4.172921   0.000000
    13  H    4.272912   4.806047   0.000000
    14  H    4.222243   5.962042   1.782396   0.000000
    15  H    3.503198   5.689886   2.365095   2.368137   0.000000
    16  H    4.142247   4.634578   2.489696   2.396002   4.070117
    17  H    2.651809   5.630678   3.744411   2.695726   3.487263
    18  H    3.956164   5.970209   5.256393   4.385593   5.640654
    19  H    2.018093   4.350886   5.221891   4.969820   5.107891
    20  H    0.972222   4.354261   3.532468   3.515935   2.535656
    21  H    3.862483   3.862409   4.802402   4.824169   5.809775
    22  H    3.315801   2.035981   5.707528   6.372650   6.020766
    23  H    2.460724   2.081967   4.584095   5.398005   4.553263
    24  H    4.261357   0.964076   4.169212   5.518529   5.147008
    25  H    5.225979   2.583536   5.528740   6.298028   6.934899
    26  O    6.047029   2.783835   6.044321   6.991416   7.574014
    27  H    5.801414   2.042079   5.850366   6.969637   7.256646
    28  H    6.768753   3.498762   7.003317   7.905166   8.498456
    29  O    8.477912   5.234550   9.035091   9.897481  10.477798
    30  C   11.024537   8.069064  11.458687  12.160380  13.046032
    31  H   10.848064   8.058394  11.683282  12.336348  13.114272
    32  H   11.307815   8.585907  11.631937  12.216402  13.276754
    33  H   11.881682   8.709501  12.181946  12.976424  13.817004
    34  C    9.986195   6.698163   9.344434  10.234444  11.254117
    35  H    9.471146   6.482978   8.687832   9.462926  10.645143
    36  H    9.837768   6.279954   8.991563  10.041187  10.920353
    37  H   11.033911   7.759477  10.277818  11.147463  12.244689
    38  S    9.670520   6.478507   9.811239  10.630770  11.461053
                   16         17         18         19         20
    16  H    0.000000
    17  H    2.820373   0.000000
    18  H    3.247546   2.269584   0.000000
    19  H    4.025110   2.735858   2.643435   0.000000
    20  H    3.873621   2.529055   4.278260   2.817244   0.000000
    21  H    2.787637   3.508672   2.511527   2.546710   4.255709
    22  H    5.092469   5.146908   5.220121   3.029777   3.927109
    23  H    4.726888   4.629142   5.464672   3.305380   2.728999
    24  H    4.433757   5.605964   6.232108   4.773623   4.224038
    25  H    4.175707   5.702557   5.090700   4.400329   5.553433
    26  O    4.896002   6.619097   6.059547   5.345201   6.328529
    27  H    5.096201   6.703966   6.447131   5.393454   6.040648
    28  H    5.753003   7.384757   6.623010   5.901648   7.132020
    29  O    7.692835   9.184970   8.161471   7.418902   8.950586
    30  C    9.817377  11.382859   9.967818   9.693493  11.534069
    31  H   10.020618  11.347124   9.896743   9.456826  11.431460
    32  H    9.835677  11.427964   9.872115   9.873467  11.809497
    33  H   10.652015  12.311166  10.966375  10.632233  12.365940
    34  C    7.963950  10.099371   9.041965   8.999980  10.256313
    35  H    7.160397   9.350076   8.233411   8.434751   9.713946
    36  H    7.875529  10.096809   9.267287   9.053714  10.043917
    37  H    8.874354  11.061315   9.933392  10.010220  11.298060
    38  S    8.330883  10.067830   8.881188   8.525535  10.095093
                   21         22         23         24         25
    21  H    0.000000
    22  H    3.456533   0.000000
    23  H    4.098809   1.772968   0.000000
    24  H    4.274326   2.829927   2.264314   0.000000
    25  H    2.580489   3.110368   4.066823   3.158485   0.000000
    26  O    3.554663   3.673254   4.597146   3.299997   0.990000
    27  H    3.973201   3.285684   4.031086   2.546168   1.537433
    28  H    4.135894   4.131594   5.284538   4.111099   1.688816
    29  O    5.791447   5.542673   6.936748   5.926088   3.621287
    30  C    7.875447   8.241988   9.721175   8.733773   6.117114
    31  H    7.858184   7.990637   9.570725   8.805333   6.208385
    32  H    7.934867   8.721262  10.193763   9.231048   6.421513
    33  H    8.813516   9.009929  10.444303   9.335271   6.904657
    34  C    6.796440   7.553556   8.614710   7.079726   4.764610
    35  H    6.099900   7.306589   8.314053   6.831575   4.329992
    36  H    6.924767   7.373592   8.288528   6.570620   4.680256
    37  H    7.763609   8.614568   9.684026   8.120703   5.818088
    38  S    6.607989   6.924007   8.256368   7.071248   4.576706
                   26         27         28         29         30
    26  O    0.000000
    27  H    0.987877   0.000000
    28  H    0.964418   1.611013   0.000000
    29  O    2.994109   3.434542   2.032074   0.000000
    30  C    5.581632   6.199138   4.661973   2.884933   0.000000
    31  H    5.761348   6.331271   4.815774   2.936314   1.070000
    32  H    5.977263   6.708375   5.120331   3.596791   1.070000
    33  H    6.270021   6.803082   5.350630   3.509575   1.070000
    34  C    4.030071   4.662132   3.424158   2.884933   3.103910
    35  H    3.743489   4.514343   3.297323   3.260531   3.669388
    36  H    3.817786   4.264379   3.322143   3.059534   3.864696
    37  H    5.098117   5.722281   4.485444   3.726144   3.113874
    38  S    3.923735   4.525149   3.034710   1.540000   1.790000
                   31         32         33         34         35
    31  H    0.000000
    32  H    1.747303   0.000000
    33  H    1.747303   1.747303   0.000000
    34  C    3.973874   3.285337   3.392843   0.000000
    35  H    4.472969   3.621524   4.160041   1.070000   0.000000
    36  H    4.663026   4.226292   4.014656   1.070000   1.747303
    37  H    4.129227   3.137249   3.158938   1.070000   1.747303
    38  S    2.371891   2.371891   2.371891   1.790000   2.371891
                   36         37         38
    36  H    0.000000
    37  H    1.747303   0.000000
    38  S    2.371891   2.371891   0.000000
 Stoichiometry    C8H21O8S(1+)
 Framework group  C1[X(C8H21O8S)]
 Deg. of freedom   108
 Full point group                 C1      NOp   1
 Largest Abelian subgroup         C1      NOp   1
 Largest concise Abelian subgroup C1      NOp   1
                         Standard orientation:                         
 ---------------------------------------------------------------------
 Center     Atomic      Atomic             Coordinates (Angstroms)
 Number     Number       Type             X           Y           Z
 ---------------------------------------------------------------------
      1          6           0       -3.052539    0.948491    0.910448
      2          6           0       -3.350522    1.345055   -0.547848
      3          6           0       -2.967082    0.087290   -1.354551
      4          6           0       -1.790075   -0.410134   -0.491212
      5          8           0       -2.164081   -0.192312    0.818085
      6          6           0       -4.254617    0.577807    1.748944
      7          6           0       -1.368568   -1.858355   -0.666924
      8          8           0       -5.024446   -0.370099    1.027261
      9          8           0       -2.438256    2.400379   -0.863858
     10          8           0       -0.619631    0.439267   -0.818793
     11          8           0       -3.966814   -0.870337   -1.447873
     12          8           0       -0.476662   -2.264618    0.365436
     13          1           0       -3.908008    0.160492    2.698415
     14          1           0       -4.833108    1.485835    1.947023
     15          1           0       -5.802653   -0.633382    1.526340
     16          1           0       -2.517391    1.765955    1.399468
     17          1           0       -4.388381    1.640807   -0.707245
     18          1           0       -2.735648    2.884385   -1.641590
     19          1           0       -2.639921    0.343340   -2.363864
     20          1           0       -4.485853   -0.885060   -0.625926
     21          1           0       -0.891365    1.383882   -0.832343
     22          1           0       -0.847558   -1.982252   -1.616463
     23          1           0       -2.267551   -2.473805   -0.675500
     24          1           0       -0.975246   -2.385258    1.181709
     25          1           0        0.967790   -0.137997    0.109117
     26          8           0        1.714286   -0.563431    0.600901
     27          1           0        1.364276   -1.473526    0.759396
     28          1           0        2.591874   -0.591684    0.201972
     29          8           0        4.464112   -0.803589   -0.559042
     30          6           0        6.945665    0.615524   -0.947437
     31          1           0        6.807868    0.282728   -1.954987
     32          1           0        7.037276    1.681502   -0.933286
     33          1           0        7.834231    0.175805   -0.544947
     34          6           0        5.369377    0.708819    1.724804
     35          1           0        4.628027    1.479429    1.763031
     36          1           0        5.073185   -0.102683    2.356178
     37          1           0        6.307049    1.098943    2.061664
     38         16           0        5.536451    0.124593    0.041098
 ---------------------------------------------------------------------
 Rotational constants (GHZ):           0.8211783           0.1147228           0.1129046
 Standard basis: 6-311++G(d,p) (5D, 7F)
 There are   546 symmetry adapted cartesian basis functions of A   symmetry.
 There are   529 symmetry adapted basis functions of A   symmetry.
   529 basis functions,   815 primitive gaussians,   546 cartesian basis functions
    74 alpha electrons       74 beta electrons
       nuclear repulsion energy      1500.4686391771 Hartrees.
 NAtoms=   38 NActive=   38 NUniq=   38 SFac= 1.00D+00 NAtFMM=   60 NAOKFM=F Big=F
 Integral buffers will be    131072 words long.
 Raffenetti 2 integral format.
 Two-electron integral symmetry is turned on.
 ------------------------------------------------------------------------------
 Polarizable Continuum Model (PCM)
 =================================
 Model                : PCM.
 Atomic radii         : SMD-Coulomb.
 Polarization charges : Total charges.
 Charge compensation  : None.
 Solution method      : On-the-fly selection.
 Cavity type          : VdW (van der Waals Surface) (Alpha=1.000).
 Cavity algorithm     : GePol (No added spheres)
                        Default sphere list used, NSphG=   38.
                        Lebedev-Laikov grids with approx.  5.0 points / Ang**2.
                        Smoothing algorithm: York/Karplus (Gamma=1.0000).
                        Polarization charges: spherical gaussians, with
                                              point-specific exponents (IZeta= 3).
                        Self-potential: point-specific (ISelfS= 7).
                        Self-field    : sphere-specific E.n sum rule (ISelfD= 2).
 1st derivatives      : Analytical E(r).r(x)/FMM algorithm (CHGder, D1EAlg=3).
                        Cavity 1st derivative terms included.
 Solvent              : DiMethylSulfoxide, Eps=  46.826000 Eps(inf)=   2.007889
 ------------------------------------------------------------------------------
 ------------------------------------------------------------------------------
 Atomic radii for non-electrostatic terms: SMD-CDS.
 ------------------------------------------------------------------------------
 Nuclear repulsion after PCM non-electrostatic terms =     1500.4646943000 Hartrees.
 One-electron integrals computed using PRISM.
 NBasis=   529 RedAO= T EigKep=  2.18D-06  NBF=   529
 NBsUse=   529 1.00D-06 EigRej= -1.00D+00 NBFU=   529
 ExpMin= 3.60D-02 ExpMax= 9.34D+04 ExpMxC= 3.17D+03 IAcc=3 IRadAn=         5 AccDes= 0.00D+00
 Harris functional with IExCor= 1009 and IRadAn=       5 diagonalized for initial guess.
 HarFok:  IExCor= 1009 AccDes= 0.00D+00 IRadAn=         5 IDoV= 1 UseB2=F ITyADJ=14
 ICtDFT=  3500011 ScaDFX=  1.000000  1.000000  1.000000  1.000000
 FoFCou: FMM=F IPFlag=           0 FMFlag=      100000 FMFlg1=           0
         NFxFlg=           0 DoJE=T BraDBF=F KetDBF=T FulRan=T
         wScrn=  0.000000 ICntrl=       500 IOpCl=  0 I1Cent=   200000004 NGrid=           0
         NMat0=    1 NMatS0=      1 NMatT0=    0 NMatD0=    1 NMtDS0=    0 NMtDT0=    0
 Petite list used in FoFCou.
 Requested convergence on RMS density matrix=1.00D-08 within 400 cycles.
 Requested convergence on MAX density matrix=1.00D-06.
 Requested convergence on             energy=1.00D-06.
 No special actions if energy rises.
 Inv3:  Mode=1 IEnd=    22097388.
 Iteration    1 A*A^-1 deviation from unit magnitude is 5.11D-15 for   2694.
 Iteration    1 A*A^-1 deviation from orthogonality  is 2.03D-15 for   2708   2631.
 Iteration    1 A^-1*A deviation from unit magnitude is 4.88D-15 for   2694.
 Iteration    1 A^-1*A deviation from orthogonality  is 1.95D-15 for    567    367.
 Error on total polarization charges =  0.02591
 SCF Done:  E(RM062X) =  -1317.11295511     A.U. after   14 cycles
            NFock= 14  Conv=0.44D-08     -V/T= 2.0027
 SMD-CDS (non-electrostatic) energy       (kcal/mol) =      -2.48
 (included in total energy above)
 QCSCF skips out because SCF is already converged.

 **********************************************************************

            Population analysis using the SCF density.

 **********************************************************************

 Orbital symmetries:
       Occupied  (A) (A) (A) (A) (A) (A) (A) (A) (A) (A) (A) (A)
                 (A) (A) (A) (A) (A) (A) (A) (A) (A) (A) (A) (A)
                 (A) (A) (A) (A) (A) (A) (A) (A) (A) (A) (A) (A)
                 (A) (A) (A) (A) (A) (A) (A) (A) (A) (A) (A) (A)
                 (A) (A) (A) (A) (A) (A) (A) (A) (A) (A) (A) (A)
                 (A) (A) (A) (A) (A) (A) (A) (A) (A) (A) (A) (A)
                 (A) (A)
       Virtual   (A) (A) (A) (A) (A) (A) (A) (A) (A) (A) (A) (A)
                 (A) (A) (A) (A) (A) (A) (A) (A) (A) (A) (A) (A)
                 (A) (A) (A) (A) (A) (A) (A) (A) (A) (A) (A) (A)
                 (A) (A) (A) (A) (A) (A) (A) (A) (A) (A) (A) (A)
                 (A) (A) (A) (A) (A) (A) (A) (A) (A) (A) (A) (A)
                 (A) (A) (A) (A) (A) (A) (A) (A) (A) (A) (A) (A)
                 (A) (A) (A) (A) (A) (A) (A) (A) (A) (A) (A) (A)
                 (A) (A) (A) (A) (A) (A) (A) (A) (A) (A) (A) (A)
                 (A) (A) (A) (A) (A) (A) (A) (A) (A) (A) (A) (A)
                 (A) (A) (A) (A) (A) (A) (A) (A) (A) (A) (A) (A)
                 (A) (A) (A) (A) (A) (A) (A) (A) (A) (A) (A) (A)
                 (A) (A) (A) (A) (A) (A) (A) (A) (A) (A) (A) (A)
                 (A) (A) (A) (A) (A) (A) (A) (A) (A) (A) (A) (A)
                 (A) (A) (A) (A) (A) (A) (A) (A) (A) (A) (A) (A)
                 (A) (A) (A) (A) (A) (A) (A) (A) (A) (A) (A) (A)
                 (A) (A) (A) (A) (A) (A) (A) (A) (A) (A) (A) (A)
                 (A) (A) (A) (A) (A) (A) (A) (A) (A) (A) (A) (A)
                 (A) (A) (A) (A) (A) (A) (A) (A) (A) (A) (A) (A)
                 (A) (A) (A) (A) (A) (A) (A) (A) (A) (A) (A) (A)
                 (A) (A) (A) (A) (A) (A) (A) (A) (A) (A) (A) (A)
                 (A) (A) (A) (A) (A) (A) (A) (A) (A) (A) (A) (A)
                 (A) (A) (A) (A) (A) (A) (A) (A) (A) (A) (A) (A)
                 (A) (A) (A) (A) (A) (A) (A) (A) (A) (A) (A) (A)
                 (A) (A) (A) (A) (A) (A) (A) (A) (A) (A) (A) (A)
                 (A) (A) (A) (A) (A) (A) (A) (A) (A) (A) (A) (A)
                 (A) (A) (A) (A) (A) (A) (A) (A) (A) (A) (A) (A)
                 (A) (A) (A) (A) (A) (A) (A) (A) (A) (A) (A) (A)
                 (A) (A) (A) (A) (A) (A) (A) (A) (A) (A) (A) (A)
                 (A) (A) (A) (A) (A) (A) (A) (A) (A) (A) (A) (A)
                 (A) (A) (A) (A) (A) (A) (A) (A) (A) (A) (A) (A)
                 (A) (A) (A) (A) (A) (A) (A) (A) (A) (A) (A) (A)
                 (A) (A) (A) (A) (A) (A) (A) (A) (A) (A) (A) (A)
                 (A) (A) (A) (A) (A) (A) (A) (A) (A) (A) (A) (A)
                 (A) (A) (A) (A) (A) (A) (A) (A) (A) (A) (A) (A)
                 (A) (A) (A) (A) (A) (A) (A) (A) (A) (A) (A) (A)
                 (A) (A) (A) (A) (A) (A) (A) (A) (A) (A) (A) (A)
                 (A) (A) (A) (A) (A) (A) (A) (A) (A) (A) (A) (A)
                 (A) (A) (A) (A) (A) (A) (A) (A) (A) (A) (A)
 The electronic state is 1-A.
 Alpha  occ. eigenvalues --  -89.96798 -19.77825 -19.65384 -19.65168 -19.65072
 Alpha  occ. eigenvalues --  -19.64527 -19.64236 -19.62444 -19.59786 -10.65711
 Alpha  occ. eigenvalues --  -10.61090 -10.60585 -10.60195 -10.59822 -10.59467
 Alpha  occ. eigenvalues --  -10.57812 -10.57717  -8.32932  -6.25244  -6.25138
 Alpha  occ. eigenvalues --   -6.24571  -1.30718  -1.22771  -1.17623  -1.17161
 Alpha  occ. eigenvalues --   -1.16543  -1.15653  -1.13136  -1.12050  -0.89938
 Alpha  occ. eigenvalues --   -0.89696  -0.87257  -0.83411  -0.81858  -0.76950
 Alpha  occ. eigenvalues --   -0.75551  -0.72884  -0.70909  -0.68749  -0.67529
 Alpha  occ. eigenvalues --   -0.64801  -0.64123  -0.62461  -0.60531  -0.59852
 Alpha  occ. eigenvalues --   -0.57462  -0.55781  -0.55234  -0.53498  -0.53394
 Alpha  occ. eigenvalues --   -0.53383  -0.53282  -0.52164  -0.51100  -0.50199
 Alpha  occ. eigenvalues --   -0.49934  -0.49321  -0.48717  -0.47971  -0.47105
 Alpha  occ. eigenvalues --   -0.47033  -0.44819  -0.43731  -0.42926  -0.42760
 Alpha  occ. eigenvalues --   -0.41850  -0.40813  -0.38872  -0.38331  -0.37206
 Alpha  occ. eigenvalues --   -0.36767  -0.35965  -0.33300  -0.24651
 Alpha virt. eigenvalues --   -0.02092  -0.00421   0.00309   0.00490   0.00841
 Alpha virt. eigenvalues --    0.01775   0.01983   0.02317   0.02581   0.03268
 Alpha virt. eigenvalues --    0.03380   0.03459   0.03624   0.04253   0.04803
 Alpha virt. eigenvalues --    0.05257   0.05321   0.05835   0.06244   0.06630
 Alpha virt. eigenvalues --    0.07320   0.07628   0.08115   0.08337   0.08764
 Alpha virt. eigenvalues --    0.09215   0.09502   0.10213   0.10413   0.10822
 Alpha virt. eigenvalues --    0.10958   0.11092   0.11536   0.11731   0.11977
 Alpha virt. eigenvalues --    0.12449   0.12771   0.13071   0.13212   0.13402
 Alpha virt. eigenvalues --    0.13902   0.14400   0.14443   0.14687   0.14956
 Alpha virt. eigenvalues --    0.15188   0.15288   0.15489   0.15758   0.16104
 Alpha virt. eigenvalues --    0.16568   0.16670   0.16736   0.17177   0.17589
 Alpha virt. eigenvalues --    0.18051   0.18469   0.18787   0.19355   0.19686
 Alpha virt. eigenvalues --    0.20192   0.20814   0.20881   0.21500   0.21607
 Alpha virt. eigenvalues --    0.21714   0.22019   0.22326   0.23199   0.23363
 Alpha virt. eigenvalues --    0.24452   0.24503   0.24859   0.25513   0.25528
 Alpha virt. eigenvalues --    0.26033   0.26465   0.26926   0.27133   0.27225
 Alpha virt. eigenvalues --    0.27507   0.28206   0.28640   0.28989   0.29589
 Alpha virt. eigenvalues --    0.30188   0.30300   0.30487   0.30917   0.31505
 Alpha virt. eigenvalues --    0.31722   0.31973   0.32571   0.33396   0.33682
 Alpha virt. eigenvalues --    0.33743   0.34218   0.34435   0.34754   0.35211
 Alpha virt. eigenvalues --    0.35333   0.36008   0.36243   0.36447   0.36732
 Alpha virt. eigenvalues --    0.37076   0.37232   0.37877   0.38151   0.38448
 Alpha virt. eigenvalues --    0.38884   0.39452   0.39907   0.40276   0.40601
 Alpha virt. eigenvalues --    0.40918   0.41480   0.42332   0.43072   0.44536
 Alpha virt. eigenvalues --    0.44980   0.46079   0.46523   0.47572   0.49129
 Alpha virt. eigenvalues --    0.49877   0.50044   0.50477   0.51905   0.52130
 Alpha virt. eigenvalues --    0.52410   0.55297   0.55507   0.56403   0.57069
 Alpha virt. eigenvalues --    0.57745   0.58957   0.59433   0.61022   0.61333
 Alpha virt. eigenvalues --    0.61602   0.62648   0.63215   0.64386   0.64846
 Alpha virt. eigenvalues --    0.65908   0.66303   0.66499   0.67563   0.68554
 Alpha virt. eigenvalues --    0.68813   0.69478   0.70086   0.70782   0.70875
 Alpha virt. eigenvalues --    0.71866   0.72275   0.73021   0.73562   0.74099
 Alpha virt. eigenvalues --    0.74669   0.76327   0.76943   0.77899   0.79135
 Alpha virt. eigenvalues --    0.79435   0.79731   0.80145   0.81217   0.81444
 Alpha virt. eigenvalues --    0.82502   0.82806   0.84430   0.85065   0.86979
 Alpha virt. eigenvalues --    0.87597   0.90659   0.91274   0.95550   0.96851
 Alpha virt. eigenvalues --    0.97357   0.98473   1.00063   1.02968   1.04891
 Alpha virt. eigenvalues --    1.05732   1.07275   1.08245   1.09849   1.11026
 Alpha virt. eigenvalues --    1.12935   1.13936   1.15689   1.16447   1.16821
 Alpha virt. eigenvalues --    1.17158   1.17495   1.18183   1.18669   1.19198
 Alpha virt. eigenvalues --    1.20822   1.21103   1.21599   1.22669   1.23559
 Alpha virt. eigenvalues --    1.23934   1.25002   1.25467   1.27565   1.27699
 Alpha virt. eigenvalues --    1.29110   1.29384   1.31500   1.32849   1.33087
 Alpha virt. eigenvalues --    1.33750   1.34674   1.35163   1.37883   1.39189
 Alpha virt. eigenvalues --    1.40556   1.42048   1.42967   1.44126   1.47042
 Alpha virt. eigenvalues --    1.48447   1.49504   1.50376   1.50554   1.50721
 Alpha virt. eigenvalues --    1.52993   1.53990   1.55064   1.55657   1.56825
 Alpha virt. eigenvalues --    1.57633   1.58509   1.59540   1.60730   1.61003
 Alpha virt. eigenvalues --    1.61352   1.61557   1.62733   1.63577   1.64992
 Alpha virt. eigenvalues --    1.65220   1.65397   1.66072   1.66356   1.66525
 Alpha virt. eigenvalues --    1.68316   1.69605   1.70300   1.70744   1.71379
 Alpha virt. eigenvalues --    1.71653   1.73325   1.74821   1.75494   1.77388
 Alpha virt. eigenvalues --    1.77842   1.77882   1.78472   1.79193   1.80540
 Alpha virt. eigenvalues --    1.81570   1.82644   1.83243   1.83574   1.86293
 Alpha virt. eigenvalues --    1.86446   1.87239   1.88203   1.89389   1.91522
 Alpha virt. eigenvalues --    1.93274   1.94306   1.97129   1.97653   1.99081
 Alpha virt. eigenvalues --    1.99732   2.00033   2.01161   2.02935   2.04002
 Alpha virt. eigenvalues --    2.06211   2.07594   2.08377   2.08698   2.09230
 Alpha virt. eigenvalues --    2.11600   2.12628   2.14179   2.16797   2.17307
 Alpha virt. eigenvalues --    2.19761   2.21080   2.21696   2.22590   2.23278
 Alpha virt. eigenvalues --    2.23359   2.24172   2.26043   2.26955   2.28390
 Alpha virt. eigenvalues --    2.30602   2.33671   2.33878   2.35856   2.38070
 Alpha virt. eigenvalues --    2.39973   2.46518   2.51371   2.51690   2.53966
 Alpha virt. eigenvalues --    2.54560   2.55045   2.55665   2.56040   2.57911
 Alpha virt. eigenvalues --    2.58444   2.58706   2.59666   2.60051   2.60485
 Alpha virt. eigenvalues --    2.60810   2.61716   2.62534   2.62727   2.63466
 Alpha virt. eigenvalues --    2.67102   2.67861   2.68800   2.69794   2.73749
 Alpha virt. eigenvalues --    2.75159   2.76457   2.79632   2.81561   2.83362
 Alpha virt. eigenvalues --    2.87014   2.89215   2.89506   2.91370   2.91543
 Alpha virt. eigenvalues --    2.94493   2.94628   2.95609   2.96672   2.98163
 Alpha virt. eigenvalues --    2.99225   3.00707   3.02051   3.04246   3.06193
 Alpha virt. eigenvalues --    3.07115   3.09014   3.09401   3.13349   3.15021
 Alpha virt. eigenvalues --    3.16360   3.18300   3.18863   3.19390   3.20139
 Alpha virt. eigenvalues --    3.21553   3.22245   3.25640   3.27028   3.28282
 Alpha virt. eigenvalues --    3.29012   3.29361   3.31255   3.32445   3.35027
 Alpha virt. eigenvalues --    3.35645   3.36207   3.38335   3.40562   3.40835
 Alpha virt. eigenvalues --    3.42548   3.48053   3.51111   3.54916   3.60245
 Alpha virt. eigenvalues --    3.62153   3.77024   3.80775   3.80823   3.82048
 Alpha virt. eigenvalues --    3.83221   3.84157   3.85357   3.86598   3.91074
 Alpha virt. eigenvalues --    3.93136   3.94029   3.95400   3.97017   4.00403
 Alpha virt. eigenvalues --    4.02980   4.06631   4.07369   4.10349   4.15897
 Alpha virt. eigenvalues --    4.22084   4.25952   4.27626   4.34671   4.43429
 Alpha virt. eigenvalues --    5.14360   5.17167   5.17725   5.23132   5.24019
 Alpha virt. eigenvalues --    5.25005   5.25716   5.26161   5.31061   5.32657
 Alpha virt. eigenvalues --    5.46575   5.50310   5.53092   5.55897   5.57518
 Alpha virt. eigenvalues --    5.59775   5.62163   5.69824   5.73851   5.78002
 Alpha virt. eigenvalues --    5.79391   5.82031   5.83011   5.93216   8.17980
 Alpha virt. eigenvalues --   17.47850  17.64534  17.66917  23.79497  23.87908
 Alpha virt. eigenvalues --   23.91809  23.93951  23.96203  23.99989  24.03865
 Alpha virt. eigenvalues --   24.04012  49.89329  49.99229  50.01392  50.02460
 Alpha virt. eigenvalues --   50.05287  50.09110  50.11619  50.13492 189.46121
          Condensed to atoms (all electrons):
               1          2          3          4          5          6
     1  C   10.642170  -3.443736   2.219264  -3.169215   0.235136  -1.183726
     2  C   -3.443736  10.711675  -3.491965   2.682079  -0.110062   0.376306
     3  C    2.219264  -3.491965  12.877274  -5.145079   0.145180   0.129204
     4  C   -3.169215   2.682079  -5.145079  14.679972   0.041407   0.133234
     5  O    0.235136  -0.110062   0.145180   0.041407   8.150182  -0.062810
     6  C   -1.183726   0.376306   0.129204   0.133234  -0.062810   6.244424
     7  C    0.271618  -0.619004  -0.760694  -2.349265  -0.337553  -0.042044
     8  O   -0.022436  -0.086512   0.098941  -0.094288   0.022694   0.144065
     9  O   -0.178362   0.363769  -0.122315  -0.150578   0.014571   0.004821
    10  O    0.057991  -0.001327  -0.070685   0.072924  -0.065061  -0.004014
    11  O    0.045196  -0.195189   0.530967  -0.261791   0.003637  -0.016003
    12  O    0.015655  -0.037092   0.061504  -0.267193  -0.023734  -0.008771
    13  H   -0.007004  -0.047447   0.027079  -0.025341  -0.022228   0.426346
    14  H   -0.082871   0.043225  -0.017556  -0.009283   0.019178   0.457978
    15  H   -0.033589   0.003590   0.004299   0.008573   0.002018   0.038848
    16  H    0.502159  -0.162666   0.072746  -0.045070  -0.037111  -0.070947
    17  H    0.095421   0.229199   0.096570  -0.131938  -0.002920  -0.022323
    18  H   -0.088607   0.131959  -0.104154   0.095986  -0.001027   0.000180
    19  H   -0.009528  -0.012289   0.357029   0.025317   0.022857   0.014536
    20  H   -0.004176   0.066441  -0.094052   0.078664   0.006261  -0.014341
    21  H    0.025984  -0.052345   0.045192   0.006076  -0.010792  -0.012684
    22  H   -0.017337   0.006859  -0.044623  -0.054514   0.015133   0.004225
    23  H    0.044489  -0.028258  -0.030899  -0.069423  -0.023982  -0.017483
    24  H    0.002691   0.002009  -0.006395   0.000885   0.018022  -0.000534
    25  H   -0.065069   0.065240  -0.105285   0.051208   0.000572   0.009664
    26  O    0.007370  -0.013941  -0.033763  -0.076224  -0.005080  -0.002606
    27  H   -0.001696  -0.000763   0.002379  -0.016745  -0.002271   0.001087
    28  H    0.004501  -0.003946   0.029804   0.070789  -0.000990  -0.001051
    29  O    0.000306  -0.000361   0.001328   0.002168  -0.000010  -0.000006
    30  C   -0.000059   0.000008   0.000049   0.000248  -0.000005   0.000004
    31  H    0.000003   0.000007  -0.000045  -0.000274   0.000002  -0.000000
    32  H   -0.000019   0.000032  -0.000084  -0.000107   0.000002   0.000000
    33  H    0.000005  -0.000008   0.000026   0.000019  -0.000001   0.000000
    34  C   -0.000108   0.000159   0.000110  -0.002229   0.000011   0.000017
    35  H   -0.000015   0.000156  -0.000439   0.000596   0.000044   0.000000
    36  H    0.000097  -0.000140   0.000022  -0.000469  -0.000015  -0.000017
    37  H    0.000017  -0.000036   0.000117   0.000235  -0.000008   0.000001
    38  S   -0.000213   0.000000  -0.001431  -0.006572   0.000055   0.000040
               7          8          9         10         11         12
     1  C    0.271618  -0.022436  -0.178362   0.057991   0.045196   0.015655
     2  C   -0.619004  -0.086512   0.363769  -0.001327  -0.195189  -0.037092
     3  C   -0.760694   0.098941  -0.122315  -0.070685   0.530967   0.061504
     4  C   -2.349265  -0.094288  -0.150578   0.072924  -0.261791  -0.267193
     5  O   -0.337553   0.022694   0.014571  -0.065061   0.003637  -0.023734
     6  C   -0.042044   0.144065   0.004821  -0.004014  -0.016003  -0.008771
     7  C    9.566354   0.005177   0.047607  -0.209701  -0.034215   0.228359
     8  O    0.005177   8.248819   0.003652   0.001934  -0.014375  -0.000923
     9  O    0.047607   0.003652   8.070654   0.001693   0.026367   0.000273
    10  O   -0.209701   0.001934   0.001693   8.110658   0.018439   0.034453
    11  O   -0.034215  -0.014375   0.026367   0.018439   7.822020   0.001272
    12  O    0.228359  -0.000923   0.000273   0.034453   0.001272   8.150970
    13  H   -0.004679  -0.059384  -0.001530   0.001577   0.002227   0.000538
    14  H    0.002901  -0.072178  -0.001597  -0.001496  -0.000520  -0.000306
    15  H   -0.002068   0.221135  -0.000198   0.000068  -0.000705   0.000023
    16  H    0.001198   0.010147  -0.005421   0.003042  -0.002375   0.000362
    17  H   -0.013108   0.009361  -0.000545   0.001879  -0.008287   0.000666
    18  H    0.012428   0.000475   0.271590  -0.004302   0.002183  -0.000216
    19  H   -0.136374   0.001821  -0.025030   0.018271  -0.054440  -0.002129
    20  H   -0.036630  -0.028666  -0.000015  -0.001516   0.302070  -0.001481
    21  H    0.022965  -0.000177  -0.005396   0.276922  -0.001027   0.004424
    22  H    0.477023   0.000615   0.000685  -0.004590  -0.009644  -0.067355
    23  H    0.411390  -0.001148  -0.000284   0.010098   0.042719   0.001359
    24  H   -0.005092   0.000041  -0.000305  -0.003469  -0.002383   0.254504
    25  H   -0.038761   0.000452  -0.004189   0.089448  -0.002278   0.002570
    26  O    0.086587   0.000001   0.000519   0.000272   0.000107  -0.022290
    27  H    0.036031   0.000024   0.000058  -0.004048  -0.000069   0.026811
    28  H   -0.057056  -0.000049   0.000106  -0.010603   0.000230   0.002344
    29  O    0.000730  -0.000000   0.000000  -0.000224   0.000000  -0.000441
    30  C   -0.000087   0.000000  -0.000000  -0.000107  -0.000000  -0.000042
    31  H    0.000174  -0.000000  -0.000001   0.000046  -0.000000   0.000007
    32  H   -0.000046   0.000000   0.000000   0.000019  -0.000000   0.000004
    33  H    0.000061  -0.000000  -0.000000  -0.000002   0.000000  -0.000006
    34  C    0.001598  -0.000000   0.000007  -0.000356   0.000001  -0.000124
    35  H   -0.000234   0.000001  -0.000006   0.000155  -0.000000  -0.000034
    36  H   -0.000072  -0.000000   0.000001   0.000089  -0.000001  -0.000126
    37  H    0.000139  -0.000000   0.000001  -0.000078   0.000000  -0.000022
    38  S    0.005042   0.000000  -0.000023   0.000440  -0.000004   0.000123
              13         14         15         16         17         18
     1  C   -0.007004  -0.082871  -0.033589   0.502159   0.095421  -0.088607
     2  C   -0.047447   0.043225   0.003590  -0.162666   0.229199   0.131959
     3  C    0.027079  -0.017556   0.004299   0.072746   0.096570  -0.104154
     4  C   -0.025341  -0.009283   0.008573  -0.045070  -0.131938   0.095986
     5  O   -0.022228   0.019178   0.002018  -0.037111  -0.002920  -0.001027
     6  C    0.426346   0.457978   0.038848  -0.070947  -0.022323   0.000180
     7  C   -0.004679   0.002901  -0.002068   0.001198  -0.013108   0.012428
     8  O   -0.059384  -0.072178   0.221135   0.010147   0.009361   0.000475
     9  O   -0.001530  -0.001597  -0.000198  -0.005421  -0.000545   0.271590
    10  O    0.001577  -0.001496   0.000068   0.003042   0.001879  -0.004302
    11  O    0.002227  -0.000520  -0.000705  -0.002375  -0.008287   0.002183
    12  O    0.000538  -0.000306   0.000023   0.000362   0.000666  -0.000216
    13  H    0.547009  -0.061738  -0.001515   0.001675   0.007684  -0.001167
    14  H   -0.061738   0.532147  -0.005187  -0.011327  -0.014744   0.001484
    15  H   -0.001515  -0.005187   0.401571  -0.000571  -0.002309  -0.000164
    16  H    0.001675  -0.011327  -0.000571   0.420258   0.011555  -0.002407
    17  H    0.007684  -0.014744  -0.002309   0.011555   0.436361  -0.026662
    18  H   -0.001167   0.001484  -0.000164  -0.002407  -0.026662   0.402088
    19  H    0.001116  -0.000908   0.000487   0.002870  -0.001057  -0.005673
    20  H   -0.004919   0.002754   0.006660  -0.000376  -0.010562   0.001935
    21  H   -0.000122  -0.000447   0.000025   0.008644   0.005205  -0.008658
    22  H    0.000087   0.000186   0.000056  -0.001059  -0.001049   0.000642
    23  H    0.000861  -0.001160  -0.000971   0.001293   0.002888  -0.000668
    24  H   -0.000947   0.000198   0.000142   0.000180  -0.000083   0.000033
    25  H   -0.000635   0.001148   0.000014  -0.002856   0.000293  -0.000071
    26  O    0.000288  -0.000105  -0.000008   0.000776  -0.000207   0.000074
    27  H   -0.000077   0.000100  -0.000009   0.000205   0.000003   0.000030
    28  H    0.000090  -0.000182   0.000011  -0.000162  -0.000032  -0.000030
    29  O    0.000001  -0.000001   0.000000   0.000093   0.000001  -0.000015
    30  C    0.000000  -0.000000   0.000000  -0.000004  -0.000001  -0.000001
    31  H   -0.000000   0.000000  -0.000000  -0.000000   0.000000   0.000001
    32  H   -0.000000   0.000000  -0.000000  -0.000010  -0.000000   0.000002
    33  H    0.000000  -0.000000   0.000000   0.000003   0.000000  -0.000000
    34  C    0.000002  -0.000001  -0.000000   0.000075   0.000009   0.000002
    35  H   -0.000003   0.000005  -0.000000  -0.000154  -0.000008   0.000010
    36  H   -0.000001  -0.000002   0.000000   0.000077  -0.000001  -0.000003
    37  H    0.000001  -0.000001   0.000000   0.000012   0.000000  -0.000000
    38  S    0.000000   0.000002   0.000000  -0.000034  -0.000002   0.000017
              19         20         21         22         23         24
     1  C   -0.009528  -0.004176   0.025984  -0.017337   0.044489   0.002691
     2  C   -0.012289   0.066441  -0.052345   0.006859  -0.028258   0.002009
     3  C    0.357029  -0.094052   0.045192  -0.044623  -0.030899  -0.006395
     4  C    0.025317   0.078664   0.006076  -0.054514  -0.069423   0.000885
     5  O    0.022857   0.006261  -0.010792   0.015133  -0.023982   0.018022
     6  C    0.014536  -0.014341  -0.012684   0.004225  -0.017483  -0.000534
     7  C   -0.136374  -0.036630   0.022965   0.477023   0.411390  -0.005092
     8  O    0.001821  -0.028666  -0.000177   0.000615  -0.001148   0.000041
     9  O   -0.025030  -0.000015  -0.005396   0.000685  -0.000284  -0.000305
    10  O    0.018271  -0.001516   0.276922  -0.004590   0.010098  -0.003469
    11  O   -0.054440   0.302070  -0.001027  -0.009644   0.042719  -0.002383
    12  O   -0.002129  -0.001481   0.004424  -0.067355   0.001359   0.254504
    13  H    0.001116  -0.004919  -0.000122   0.000087   0.000861  -0.000947
    14  H   -0.000908   0.002754  -0.000447   0.000186  -0.001160   0.000198
    15  H    0.000487   0.006660   0.000025   0.000056  -0.000971   0.000142
    16  H    0.002870  -0.000376   0.008644  -0.001059   0.001293   0.000180
    17  H   -0.001057  -0.010562   0.005205  -0.001049   0.002888  -0.000083
    18  H   -0.005673   0.001935  -0.008658   0.000642  -0.000668   0.000033
    19  H    0.471927   0.014047   0.003591   0.000954  -0.002407   0.000417
    20  H    0.014047   0.391974  -0.001727   0.000778  -0.006652   0.000582
    21  H    0.003591  -0.001727   0.367499  -0.003887   0.002726  -0.000770
    22  H    0.000954   0.000778  -0.003887   0.420411  -0.017353   0.012151
    23  H   -0.002407  -0.006652   0.002726  -0.017353   0.456278  -0.019909
    24  H    0.000417   0.000582  -0.000770   0.012151  -0.019909   0.417857
    25  H    0.005638   0.000399  -0.018214   0.006835  -0.000634   0.000284
    26  O   -0.000567   0.000262  -0.001347   0.007309  -0.001694   0.002186
    27  H   -0.000161  -0.000152   0.000982  -0.001757   0.000167  -0.007586
    28  H   -0.000640   0.000001   0.002424  -0.005080   0.000407   0.000747
    29  O    0.000069  -0.000002   0.001130  -0.000554  -0.000000   0.000162
    30  C    0.000012  -0.000001  -0.000051  -0.000031   0.000005  -0.000021
    31  H   -0.000000   0.000000  -0.000035   0.000012  -0.000001   0.000007
    32  H   -0.000004   0.000000  -0.000102   0.000027  -0.000002  -0.000001
    33  H    0.000002  -0.000000   0.000026  -0.000016   0.000002  -0.000002
    34  C    0.000014  -0.000002  -0.000468  -0.000225   0.000076  -0.000340
    35  H   -0.000015   0.000003  -0.000027   0.000110  -0.000039   0.000051
    36  H   -0.000001  -0.000000   0.000100   0.000045  -0.000014   0.000112
    37  H    0.000003  -0.000000   0.000069  -0.000041   0.000009  -0.000032
    38  S   -0.000015  -0.000004  -0.000769   0.000711  -0.000033  -0.000011
              25         26         27         28         29         30
     1  C   -0.065069   0.007370  -0.001696   0.004501   0.000306  -0.000059
     2  C    0.065240  -0.013941  -0.000763  -0.003946  -0.000361   0.000008
     3  C   -0.105285  -0.033763   0.002379   0.029804   0.001328   0.000049
     4  C    0.051208  -0.076224  -0.016745   0.070789   0.002168   0.000248
     5  O    0.000572  -0.005080  -0.002271  -0.000990  -0.000010  -0.000005
     6  C    0.009664  -0.002606   0.001087  -0.001051  -0.000006   0.000004
     7  C   -0.038761   0.086587   0.036031  -0.057056   0.000730  -0.000087
     8  O    0.000452   0.000001   0.000024  -0.000049  -0.000000   0.000000
     9  O   -0.004189   0.000519   0.000058   0.000106   0.000000  -0.000000
    10  O    0.089448   0.000272  -0.004048  -0.010603  -0.000224  -0.000107
    11  O   -0.002278   0.000107  -0.000069   0.000230   0.000000  -0.000000
    12  O    0.002570  -0.022290   0.026811   0.002344  -0.000441  -0.000042
    13  H   -0.000635   0.000288  -0.000077   0.000090   0.000001   0.000000
    14  H    0.001148  -0.000105   0.000100  -0.000182  -0.000001  -0.000000
    15  H    0.000014  -0.000008  -0.000009   0.000011   0.000000   0.000000
    16  H   -0.002856   0.000776   0.000205  -0.000162   0.000093  -0.000004
    17  H    0.000293  -0.000207   0.000003  -0.000032   0.000001  -0.000001
    18  H   -0.000071   0.000074   0.000030  -0.000030  -0.000015  -0.000001
    19  H    0.005638  -0.000567  -0.000161  -0.000640   0.000069   0.000012
    20  H    0.000399   0.000262  -0.000152   0.000001  -0.000002  -0.000001
    21  H   -0.018214  -0.001347   0.000982   0.002424   0.001130  -0.000051
    22  H    0.006835   0.007309  -0.001757  -0.005080  -0.000554  -0.000031
    23  H   -0.000634  -0.001694   0.000167   0.000407  -0.000000   0.000005
    24  H    0.000284   0.002186  -0.007586   0.000747   0.000162  -0.000021
    25  H    0.436152   0.194369  -0.004361  -0.067508  -0.026791   0.003968
    26  O    0.194369   7.684529   0.280504   0.200787  -0.014334  -0.003614
    27  H   -0.004361   0.280504   0.326282  -0.036133  -0.007329  -0.000648
    28  H   -0.067508   0.200787  -0.036133   0.465011   0.126140   0.006758
    29  O   -0.026791  -0.014334  -0.007329   0.126140   8.696445   0.004930
    30  C    0.003968  -0.003614  -0.000648   0.006758   0.004930   5.793478
    31  H    0.000050   0.000029   0.000053  -0.001044   0.002627   0.337154
    32  H    0.001737   0.000312   0.000009  -0.004038   0.000061   0.387560
    33  H   -0.000574  -0.000307   0.000183   0.000193  -0.000021   0.397571
    34  C    0.012855   0.006113   0.007197  -0.039628  -0.115879  -0.192561
    35  H   -0.008354  -0.001403   0.000630   0.007800   0.000639  -0.012193
    36  H    0.001866   0.004182  -0.003708  -0.003111   0.004362   0.001018
    37  H   -0.001269  -0.000274   0.000523   0.001086   0.008114   0.025318
    38  S    0.018014  -0.005660   0.005130  -0.050770  -0.183465  -0.101102
              31         32         33         34         35         36
     1  C    0.000003  -0.000019   0.000005  -0.000108  -0.000015   0.000097
     2  C    0.000007   0.000032  -0.000008   0.000159   0.000156  -0.000140
     3  C   -0.000045  -0.000084   0.000026   0.000110  -0.000439   0.000022
     4  C   -0.000274  -0.000107   0.000019  -0.002229   0.000596  -0.000469
     5  O    0.000002   0.000002  -0.000001   0.000011   0.000044  -0.000015
     6  C   -0.000000   0.000000   0.000000   0.000017   0.000000  -0.000017
     7  C    0.000174  -0.000046   0.000061   0.001598  -0.000234  -0.000072
     8  O   -0.000000   0.000000  -0.000000  -0.000000   0.000001  -0.000000
     9  O   -0.000001   0.000000  -0.000000   0.000007  -0.000006   0.000001
    10  O    0.000046   0.000019  -0.000002  -0.000356   0.000155   0.000089
    11  O   -0.000000  -0.000000   0.000000   0.000001  -0.000000  -0.000001
    12  O    0.000007   0.000004  -0.000006  -0.000124  -0.000034  -0.000126
    13  H   -0.000000  -0.000000   0.000000   0.000002  -0.000003  -0.000001
    14  H    0.000000   0.000000  -0.000000  -0.000001   0.000005  -0.000002
    15  H   -0.000000  -0.000000   0.000000  -0.000000  -0.000000   0.000000
    16  H   -0.000000  -0.000010   0.000003   0.000075  -0.000154   0.000077
    17  H    0.000000  -0.000000   0.000000   0.000009  -0.000008  -0.000001
    18  H    0.000001   0.000002  -0.000000   0.000002   0.000010  -0.000003
    19  H   -0.000000  -0.000004   0.000002   0.000014  -0.000015  -0.000001
    20  H    0.000000   0.000000  -0.000000  -0.000002   0.000003  -0.000000
    21  H   -0.000035  -0.000102   0.000026  -0.000468  -0.000027   0.000100
    22  H    0.000012   0.000027  -0.000016  -0.000225   0.000110   0.000045
    23  H   -0.000001  -0.000002   0.000002   0.000076  -0.000039  -0.000014
    24  H    0.000007  -0.000001  -0.000002  -0.000340   0.000051   0.000112
    25  H    0.000050   0.001737  -0.000574   0.012855  -0.008354   0.001866
    26  O    0.000029   0.000312  -0.000307   0.006113  -0.001403   0.004182
    27  H    0.000053   0.000009   0.000183   0.007197   0.000630  -0.003708
    28  H   -0.001044  -0.004038   0.000193  -0.039628   0.007800  -0.003111
    29  O    0.002627   0.000061  -0.000021  -0.115879   0.000639   0.004362
    30  C    0.337154   0.387560   0.397571  -0.192561  -0.012193   0.001018
    31  H    0.502081  -0.029213  -0.027031   0.023920   0.000143  -0.002468
    32  H   -0.029213   0.493671  -0.039197   0.021714  -0.008217   0.001888
    33  H   -0.027031  -0.039197   0.482116   0.001187   0.003296  -0.003628
    34  C    0.023920   0.021714   0.001187   5.854594   0.380242   0.406691
    35  H    0.000143  -0.008217   0.003296   0.380242   0.526615  -0.055696
    36  H   -0.002468   0.001888  -0.003628   0.406691  -0.055696   0.519787
    37  H   -0.003708  -0.000484  -0.000758   0.320962  -0.024555  -0.038543
    38  S   -0.017911  -0.054771  -0.044672  -0.094298  -0.046500  -0.063731
              37         38
     1  C    0.000017  -0.000213
     2  C   -0.000036   0.000000
     3  C    0.000117  -0.001431
     4  C    0.000235  -0.006572
     5  O   -0.000008   0.000055
     6  C    0.000001   0.000040
     7  C    0.000139   0.005042
     8  O   -0.000000   0.000000
     9  O    0.000001  -0.000023
    10  O   -0.000078   0.000440
    11  O    0.000000  -0.000004
    12  O   -0.000022   0.000123
    13  H    0.000001   0.000000
    14  H   -0.000001   0.000002
    15  H    0.000000   0.000000
    16  H    0.000012  -0.000034
    17  H    0.000000  -0.000002
    18  H   -0.000000   0.000017
    19  H    0.000003  -0.000015
    20  H   -0.000000  -0.000004
    21  H    0.000069  -0.000769
    22  H   -0.000041   0.000711
    23  H    0.000009  -0.000033
    24  H   -0.000032  -0.000011
    25  H   -0.001269   0.018014
    26  O   -0.000274  -0.005660
    27  H    0.000523   0.005130
    28  H    0.001086  -0.050770
    29  O    0.008114  -0.183465
    30  C    0.025318  -0.101102
    31  H   -0.003708  -0.017911
    32  H   -0.000484  -0.054771
    33  H   -0.000758  -0.044672
    34  C    0.320962  -0.094298
    35  H   -0.024555  -0.046500
    36  H   -0.038543  -0.063731
    37  H    0.494951  -0.013793
    38  S   -0.013793  16.224476
 Mulliken charges:
               1
     1  C    0.137695
     2  C   -0.375626
     3  C   -0.669620
     4  C   -0.074780
     5  O    0.008697
     6  C   -0.525619
     7  C   -0.530698
     8  O   -0.389220
     9  O   -0.310577
    10  O   -0.318836
    11  O   -0.194127
    12  O   -0.353939
    13  H    0.222157
    14  H    0.220303
    15  H    0.359776
    16  H    0.305181
    17  H    0.338742
    18  H    0.322706
    19  H    0.310261
    20  H    0.332442
    21  H    0.345059
    22  H    0.274262
    23  H    0.248244
    24  H    0.334619
    25  H    0.444077
    26  O   -0.293151
    27  H    0.399128
    28  H    0.362825
    29  O   -0.499873
    30  C   -0.647555
    31  H    0.215416
    32  H    0.229254
    33  H    0.231533
    34  C   -0.591336
    35  H    0.237395
    36  H    0.231409
    37  H    0.232043
    38  S    0.431731
 Sum of Mulliken charges =   1.00000
 Mulliken charges with hydrogens summed into heavy atoms:
               1
     1  C    0.442876
     2  C   -0.036884
     3  C   -0.359359
     4  C   -0.074780
     5  O    0.008697
     6  C   -0.083159
     7  C   -0.008193
     8  O   -0.029443
     9  O    0.012130
    10  O    0.026223
    11  O    0.138316
    12  O   -0.019320
    26  O    0.912879
    29  O   -0.499873
    30  C    0.028649
    34  C    0.109512
    38  S    0.431731
 Electronic spatial extent (au):  <R**2>=           9477.1341
 Charge=              1.0000 electrons
 Dipole moment (field-independent basis, Debye):
    X=              4.0014    Y=              4.8179    Z=              5.6053  Tot=              8.4049
 Quadrupole moment (field-independent basis, Debye-Ang):
   XX=             10.3015   YY=            -98.4140   ZZ=            -92.8275
   XY=              7.9052   XZ=             -2.9541   YZ=             -8.9540
 Traceless Quadrupole moment (field-independent basis, Debye-Ang):
   XX=             70.6148   YY=            -38.1007   ZZ=            -32.5142
   XY=              7.9052   XZ=             -2.9541   YZ=             -8.9540
 Octapole moment (field-independent basis, Debye-Ang**2):
  XXX=            358.8641  YYY=             11.2960  ZZZ=             21.4636  XYY=            -31.8516
  XXY=            157.4693  XXZ=            123.6863  XZZ=              0.4993  YZZ=             14.1718
  YYZ=             -1.2536  XYZ=             21.3778
 Hexadecapole moment (field-independent basis, Debye-Ang**3):
 XXXX=          -4931.7514 YYYY=           -882.2690 ZZZZ=           -734.7423 XXXY=            598.7558
 XXXZ=           -485.4080 YYYX=             -6.4295 YYYZ=            -83.0577 ZZZX=            -40.7313
 ZZZY=            -49.3918 XXYY=          -1721.1990 XXZZ=          -1456.7178 YYZZ=           -226.2645
 XXYZ=           -106.6970 YYXZ=             39.3897 ZZXY=            -30.8139
 N-N= 1.500464694300D+03 E-N=-6.087888568871D+03  KE= 1.313592914673D+03
[...]
 28,0.00000039,-0.00000004,0.00000046,0.00000193,-0.00000022,-0.0000000
 3,0.00000589,0.00000326,0.00000040,-0.00000206,-0.00000861,0.00000469,
 -0.00000201,0.00000138,0.00000745,-0.00000044,-0.00000304,-0.00000671,
 0.00029529,0.00007278,-0.00017925,0.00011454,0.00035598,0.00036540,-0.
 00004365,-0.00002396,-0.00007147,0.00227845,-0.00217166,-0.00111852,0.
 00088659,-0.00954088,-0.02809892,0.00251295,-0.01057191,-0.01004885,-0
 .00099554,-0.00288798,0.00125687,0.00083679,0.00039015,-0.00164269,-0.
 00010459,-0.00021884,-0.00058233,0.58868705,-0.00002330,-0.00001254,0.
 00000017,-0.00000214,0.00000014,0.00000398,-0.00000263,0.00000178,-0.0
 0001946,-0.00005608,0.00006502,0.00001387,0.00004673,-0.00000098,-0.00
 002067,0.00000036,0.00000265,0.00000221,-0.00002023,-0.00000204,-0.000
 03784,0.00000451,-0.00000123,-0.00000312,0.00001467,0.00001324,0.00000
 546,0.00013353,-0.00000354,0.00004329,0.00001907,-0.00000772,0.0000107
 2,0.00010453,-0.00009638,0.00001195,-0.00000027,-0.00000092,-0.0000004
 2,0.00000221,-0.00000078,-0.00000028,-0.00000053,0.00000070,0.00000003
 ,0.00000210,0.00000242,-0.00000017,0.00000281,0.00000088,0.,-0.0000011
 5,-0.00000270,-0.00000228,-0.00000035,-0.00000134,0.00000009,-0.000007
 11,0.00000119,0.00000189,0.00000041,-0.00003998,0.00000769,0.00000172,
 0.00000732,-0.00000868,0.00000965,-0.00000323,0.00000082,0.00000279,-0
 .00000121,0.00003210,-0.00022434,-0.00021936,-0.00008181,0.00118700,-0
 .00006377,-0.00081827,-0.00017453,0.00027893,0.00000468,-0.00452662,0.
 00007352,0.00101029,0.00740059,0.00654752,0.01814035,0.00161013,-0.018
 17968,-0.02598286,-0.00276877,-0.00503288,0.00357345,0.00092054,0.0026
 7958,-0.00074047,0.00076086,0.00155394,-0.00041594,0.00608724,0.524853
 66,0.00004384,0.00002151,0.00000072,0.00000896,-0.00000160,-0.00000802
 ,0.00001415,0.00000460,0.00003595,0.00010447,-0.00014365,-0.00003773,-
 0.00008991,0.00000930,0.00003579,0.00000034,-0.00000651,-0.00000282,0.
 00004740,0.00000147,0.00010718,-0.00000933,0.00000440,0.00000348,-0.00
 003312,-0.00002020,-0.00001430,-0.00032480,0.00000175,-0.00012495,-0.0
 0003432,0.00001896,-0.00002166,-0.00020116,0.00021832,-0.00002620,0.00
 000011,0.00000126,0.00000088,-0.00000409,0.00000176,0.,0.00000143,-0.0
 0000169,0.00000030,-0.00000393,-0.00000387,-0.00000096,-0.00000550,-0.
 00000164,-0.00000016,0.00000064,0.00000533,0.00000560,-0.00000187,-0.0
 0000014,0.00000034,0.00001170,-0.00000322,-0.00000371,-0.00000901,0.00
 007007,-0.00000223,0.00000299,-0.00001444,0.00001699,-0.00001682,0.000
 00630,-0.00001295,0.00000577,-0.00000601,-0.00005270,0.00022550,0.0005
 1935,0.00007925,-0.00228587,-0.00057306,-0.00050201,0.00039575,-0.0004
 0602,-0.00000510,0.00261010,-0.00032436,0.00155078,-0.00199167,-0.0070
 8853,-0.01918064,0.00117238,0.00233263,0.01006910,0.00170398,0.0025475
 7,-0.00146833,-0.00019867,0.00150162,-0.00011202,-0.00039885,-0.000897
 56,-0.00045372,0.00506503,-0.10287964,0.42424342,-0.00001296,-0.000007
 13,-0.00000027,-0.00000172,0.00000035,0.00000159,-0.00000122,0.0000007
 4,-0.00001066,-0.00002603,0.00003383,0.00000491,0.00002697,-0.00000144
 ,-0.00000751,-0.00000028,0.00000204,0.00000070,-0.00001636,-0.00000216
 ,-0.00004489,0.00000268,-0.00000187,-0.00000061,0.00000949,0.00000565,
 0.00000541,0.00006884,-0.00000163,0.00003097,0.00000915,-0.00000504,0.
 00000670,0.00007103,-0.00006896,0.00001715,-0.00000009,-0.00000041,-0.
 00000055,0.00000134,-0.00000056,0.00000013,-0.00000035,0.00000067,-0.0
 0000003,0.00000111,0.00000120,-0.00000013,0.00000150,0.00000078,0.0000
 0041,-0.00000019,-0.00000147,-0.00000172,-0.00000003,0.00000010,0.0000
 0008,-0.00000369,0.00000070,0.00000022,-0.00000161,-0.00001489,-0.0000
 0797,-0.00000389,0.00000486,-0.00000491,0.00000652,-0.00000107,0.00000
 507,-0.00000708,0.00000070,0.00001791,-0.00040773,-0.00012733,-0.00001
 689,-0.00114350,-0.00060694,0.00003979,-0.00023144,0.00045644,-0.00008
 898,0.00055083,0.00010801,0.00012596,0.00079413,0.00004793,0.00063650,
 0.00093192,0.00024148,-0.00070468,0.00008477,-0.00015591,-0.00006262,-
 0.00009694,0.00062803,0.00008200,0.00001511,0.00002266,0.00008244,-0.3
 0225622,-0.01394830,0.08981739,0.31794672,0.00000540,0.00000291,-0.000
 00153,-0.00000069,0.00000005,-0.00000152,0.00000166,-0.00000281,0.0000
 0253,0.00000159,0.00000034,-0.00000132,-0.00001112,-0.00000177,0.00000
 246,-0.00000071,-0.00000046,-0.00000007,0.00000483,0.00000220,0.000017
 19,-0.00000120,-0.00000157,0.00000071,-0.00000095,-0.00000408,0.000000
 04,-0.00001915,-0.00000344,-0.00000821,-0.00000404,-0.00000149,-0.0000
 0070,-0.00001059,0.00000242,-0.00000697,0.00000039,0.00000034,0.000000
 14,-0.00000053,0.,-0.00000018,0.00000056,0.00000037,0.00000017,-0.0000
 0090,-0.00000053,0.00000009,-0.00000067,-0.00000013,0.00000001,0.00000
 043,0.00000038,0.00000041,-0.00000014,0.00000077,-0.00000056,0.0000017
 9,0.00000064,-0.00000006,-0.00000052,0.00000797,-0.00000374,-0.0000000
 6,-0.00000052,0.00000116,-0.00000053,-0.00000001,-0.00000153,0.0000040
 9,0.00000068,-0.00000403,-0.00001563,-0.00001719,0.00006227,-0.0003893
 4,-0.00059045,0.00058117,0.00016785,0.00003293,0.00010202,0.00064817,0
 .00052332,-0.00064477,-0.00219673,0.00063127,0.00264538,0.00116149,0.0
 0147917,0.00044677,-0.00008676,0.00030690,0.00004145,-0.00055680,-0.00
 036710,0.00000607,-0.00010284,-0.00009921,0.00009423,-0.01550109,-0.04
 602540,0.00689637,0.01539015,0.04686443,-0.00003420,-0.00001788,-0.000
 00076,-0.00000564,0.00000055,0.00000619,-0.00000849,-0.00000427,-0.000
 02993,-0.00008240,0.00011211,0.00003258,0.00007182,-0.00000636,-0.0000
 2968,-0.00000040,0.00000428,0.00000260,-0.00004096,0.00000226,-0.00009
 701,0.00000699,-0.00000335,-0.00000354,0.00002745,0.00001640,0.0000130
 1,0.00026079,-0.00000541,0.00010130,0.00002585,-0.00001408,0.00001726,
 0.00017879,-0.00017815,0.00003083,-0.00000008,-0.00000110,-0.00000057,
 0.00000332,-0.00000155,0.00000004,-0.00000096,0.00000147,0.00000004,0.
 00000348,0.00000318,0.00000070,0.00000431,0.00000154,0.00000009,-0.000
 00004,-0.00000463,-0.00000424,0.00000126,0.00000079,-0.00000027,-0.000
 00899,0.00000291,0.00000316,0.00000554,-0.00005281,-0.00000291,-0.0000
 0387,0.00001146,-0.00001158,0.00001405,-0.00000447,0.00001062,-0.00000
 613,0.00000484,0.00004613,-0.00042443,-0.00046041,0.00005206,0.0001734
 3,0.00030018,0.00051636,-0.00054663,0.00053356,-0.00008299,0.00064287,
 0.00026050,-0.00172316,-0.00215137,0.00177870,0.00354088,-0.00034499,0
 .00289653,0.00115854,-0.00008711,0.00048877,-0.00007359,-0.00058498,-0
 .00080494,0.00067589,-0.00010963,0.00002808,0.00006142,0.08925370,0.00
 791357,-0.07391930,-0.09560917,-0.00226757,0.08030538,-0.00000302,-0.0
 0000166,-0.00000004,0.00000086,0.00000022,0.00000015,0.00000093,0.0000
 0160,-0.00000087,0.00000096,-0.00000153,0.00000118,0.00000602,0.000002
 09,-0.00000048,0.00000004,0.00000028,0.00000018,0.00000168,-0.00000427
 ,0.00000075,0.00000078,0.00000021,-0.00000051,0.00000029,0.00000169,-0
 .00000013,0.00000645,0.00000150,0.00000282,0.00000209,0.00000075,0.000
 00058,0.00000934,0.00000508,-0.00000216,-0.00000024,-0.00000010,0.0000
 0010,0.00000027,0.,0.00000009,-0.00000029,-0.00000002,-0.00000009,0.00
 000030,0.00000043,0.00000019,0.00000030,0.00000015,0.00000003,-0.00000
 104,-0.00000020,-0.00000026,-0.00000060,0.00000011,-0.00000017,-0.0000
 0115,-0.00000002,0.00000010,-0.00000347,-0.00000118,-0.00000060,0.0000
 0063,0.00000116,-0.00000218,0.00000106,0.00000015,-0.00000237,-0.00000
 088,-0.00000003,0.00000493,-0.00000193,0.00001113,-0.00005999,0.000060
 56,0.00004086,-0.00016942,-0.00004964,-0.00003956,0.00000970,-0.000383
 50,-0.00019834,0.00032213,-0.00015278,0.00007863,-0.00036446,0.0003238
 7,0.00009658,0.00098437,0.00061966,0.00016214,-0.00016625,0.00027211,0
 .00026700,-0.00006182,-0.00003047,-0.00027483,0.00024205,-0.06769633,-
 0.07331359,0.02135538,-0.00370785,-0.02628661,0.00433969,0.06632306,-0
 .00000245,-0.00000104,-0.00000034,-0.00000047,-0.00000043,0.00000023,-
 0.00000111,-0.00000091,-0.00000252,-0.00000832,0.00000873,0.00000258,0
 .00000392,-0.00000055,-0.00000208,-0.00000016,0.00000041,-0.00000009,-
 0.00000633,-0.00000005,-0.00000842,0.00000047,-0.00000069,-0.00000004,
 0.00000204,0.00000097,0.00000113,0.00001646,0.00000072,0.00000608,0.00
 000153,-0.00000152,0.00000135,0.00000918,-0.00001548,0.00000647,0.0000
 0006,0.00000002,0.00000015,0.00000017,-0.00000017,0.00000001,-0.000000
 11,0.00000027,-0.00000006,0.00000016,0.00000016,0.00000016,0.00000022,
 0.00000015,0.00000007,0.00000017,-0.00000030,-0.00000034,0.00000044,0.
 00000002,0.00000002,-0.00000046,0.00000056,0.00000030,0.00000128,-0.00
 000407,0.00000033,-0.00000048,-0.00000030,-0.00000120,0.00000147,-0.00
 000018,0.00000211,-0.00000078,0.00000171,0.00000147,-0.00001773,-0.000
 02307,-0.00001227,0.00003008,-0.00001520,-0.00003524,-0.00004420,0.000
 03538,-0.00000502,-0.00038500,-0.00012178,-0.00016504,-0.00012188,0.00
 171995,0.00088698,0.00077711,-0.00114289,-0.00265107,-0.00036552,-0.00
 036769,0.00056862,0.00019906,0.00023498,-0.00006797,0.00005868,0.00018
 013,0.00002169,-0.07352636,-0.29680904,0.06251581,0.00097059,0.0028187
 4,-0.00004954,0.07786750,0.31600142,-0.00000231,-0.00000132,-0.0000003
 5,0.00000014,-0.00000046,0.00000024,-0.00000168,0.00000038,-0.00000049
 ,-0.00000047,0.00000602,0.00000025,0.00000755,-0.00000042,-0.00000191,
 -0.00000004,0.00000025,0.00000029,-0.00000239,0.00000081,-0.00000094,0
 .00000041,-0.00000035,-0.00000013,0.00000145,0.00000156,0.00000077,0.0
 0002195,0.00000272,0.00001125,0.00000232,-0.00000086,0.00000066,0.0000
 1424,-0.00001145,-0.00000497,0.00000002,0.00000004,-0.00000013,0.00000
 022,-0.00000010,0.,-0.00000003,0.00000016,-0.00000003,0.00000029,0.000
 00016,0.00000017,0.00000041,0.00000016,0.00000009,0.00000023,-0.000000
 08,-0.00000043,-0.00000021,0.00000008,-0.00000011,-0.00000089,0.000000
 41,0.00000029,-0.00000007,-0.00000374,-0.00000121,-0.00000189,0.000000
 65,-0.00000379,0.00000139,-0.00000092,-0.00000006,0.00000055,-0.000001
 84,0.00000386,-0.00001772,-0.00004240,0.00001654,0.00012954,0.00005677
 ,0.00007178,-0.00003103,0.00003003,-0.00000093,-0.00034627,-0.00015715
 ,-0.00022144,0.00059019,0.00184814,0.00239992,0.00066035,-0.00345736,-
 0.00676407,-0.00098802,-0.00174565,0.00128224,0.00013072,0.00028096,-0
 .00017223,0.00018473,0.00023570,0.00006215,0.01915814,0.06562190,-0.05
 935335,0.00050871,0.00925679,-0.00173275,-0.02104145,-0.06403723,0.064
 95670,0.00000691,0.00000392,-0.00000048,0.00000126,0.00000042,-0.00000
 168,0.00000254,0.00000258,0.00000635,0.00001776,-0.00002527,-0.0000064
 6,-0.00001416,0.00000144,0.00000609,-0.00000043,-0.00000038,-0.0000011
 2,0.00000827,-0.00000050,0.00002173,-0.00000097,-0.00000041,0.00000081
 ,-0.00000552,-0.00000413,-0.00000223,-0.00005964,-0.00000200,-0.000020
 02,-0.00000548,0.00000189,-0.00000332,-0.00003042,0.00003074,-0.000006
 42,0.00000003,0.00000033,0.00000046,-0.00000074,0.00000013,0.00000002,
 0.00000009,-0.00000002,0.00000011,-0.00000069,-0.00000080,-0.00000002,
 -0.00000086,-0.00000026,0.00000020,-0.00000034,0.00000098,0.00000069,-
 0.00000047,-0.00000014,-0.00000018,0.00000183,-0.00000006,-0.00000063,
 -0.00000395,0.00001346,-0.00000119,0.00000070,-0.00000108,0.00000096,-
 0.00000204,0.00000097,-0.00000364,0.00000052,0.00000143,-0.00000824,0.
 00005672,0.00014441,-0.00003486,-0.00006062,-0.00029139,-0.00047584,0.
 00015045,-0.00007490,0.00003281,-0.00069657,0.00025789,0.00092431,0.00
 197799,0.00102171,0.00239054,-0.00005274,-0.00014070,-0.00011112,0.000
 05332,-0.00006621,0.00006163,0.00006093,0.00011435,-0.00004823,0.00021
 981,-0.00013803,0.00009387,-0.16268364,0.07375807,-0.12029623,-0.01359
 189,0.01011398,-0.01979448,0.00567988,-0.00293509,0.00740683,0.1688121
 8,0.00000753,0.00000353,0.00000050,0.00000064,-0.00000028,-0.00000171,
 0.00000126,-0.00000184,0.00000683,0.00002194,-0.00002396,-0.00000824,-
 0.00001592,0.00000163,0.00000540,0.00000030,-0.00000077,-0.00000060,0.
 00000379,-0.00000021,0.00000853,-0.00000176,0.00000074,0.00000104,-0.0
 0000502,-0.00000368,-0.00000169,-0.00004436,0.00000257,-0.00001190,-0.
 00000672,0.00000310,-0.00000367,-0.00003714,0.00003598,-0.00000738,0.0
 0000014,0.00000019,-0.00000013,-0.00000075,0.00000045,0.00000001,0.000
 00018,-0.00000036,0.00000003,-0.00000093,-0.00000069,-0.00000017,-0.00
 000106,-0.00000029,0.00000026,0.00000039,0.00000128,0.00000060,0.00000
 030,-0.00000009,0.00000044,0.00000239,-0.00000079,-0.00000096,-0.00000
 041,0.00001426,-0.00000406,-0.00000128,-0.00000557,0.00000339,-0.00000
 381,0.00000143,0.00000113,-0.00000152,-0.00000119,-0.00001069,0.000074
 60,0.00008159,0.00003134,-0.00043842,0.00009776,0.00024401,-0.00001081
 ,-0.00011813,-0.00001349,0.00141256,-0.00036221,-0.00039838,-0.0016940
 7,-0.00145265,-0.00672704,0.00072885,-0.00024072,0.00135899,0.00015785
 ,0.00021211,-0.00009382,-0.00005160,0.00001103,-0.00007686,-0.00050451
 ,-0.00083283,-0.00047181,0.07295333,-0.08747662,0.07463225,-0.00200447
 ,0.00033255,-0.00166385,0.01888660,-0.00748372,0.01945310,-0.07773135,
 0.09078672,-0.00000059,-0.00000011,0.00000035,-0.00000048,-0.00000016,
 0.00000021,-0.00000085,-0.00000201,-0.00000047,-0.00000051,0.00000357,
 0.00000007,0.00000008,-0.00000010,-0.00000101,0.00000021,-0.00000014,-
 0.00000005,-0.00000203,-0.00000003,-0.00000649,-0.00000006,0.00000056,
 0.00000013,0.00000046,0.00000071,0.00000030,0.00001341,0.00000190,0.00
 000736,-0.00000003,0.00000020,0.00000023,-0.00000389,0.00000350,-0.000
 00039,0.00000008,0.00000002,0.00000008,0.,-0.00000002,0.,-0.00000010,-
 0.00000017,-0.00000008,-0.00000009,-0.00000003,0.00000010,0.,-0.000000
 03,-0.00000010,0.00000034,-0.00000004,-0.00000014,0.00000040,-0.000000
 06,0.00000009,0.00000004,-0.00000021,-0.00000001,0.00000244,-0.0000021
 9,-0.00000050,-0.00000010,-0.00000167,0.00000091,-0.00000055,-0.000000
 02,0.00000210,-0.00000062,-0.00000070,0.00000091,0.00003517,-0.0000431
 1,0.00002455,-0.00010160,0.00027241,0.00041942,-0.00010647,-0.00003450
 ,-0.00002017,0.00173231,-0.00031681,-0.00047119,-0.00128762,-0.0023835
 8,-0.00635471,0.00026627,0.00076957,0.00101399,0.00038343,-0.00002850,
 -0.00005900,0.00000173,-0.00011852,-0.00006530,-0.00007584,-0.00052458
 ,0.00019598,-0.12060580,0.07312878,-0.16821410,0.00710472,-0.00448125,
 0.01015661,-0.00236090,0.00134959,-0.00251568,0.12977954,-0.07682068,0
 .18170030,-0.00016608,-0.00007726,-0.00000518,-0.00002554,0.00000389,0
 .00002992,-0.00004127,-0.00000756,-0.00013654,-0.00042858,0.00049697,0
 .00015848,0.00032808,-0.00002921,-0.00013211,-0.00000430,0.00002353,0.
 00001189,-0.00019772,-0.00000314,-0.00040604,0.00003757,-0.00001927,-0
 .00001439,0.00012487,0.00006962,0.00004735,0.00100988,-0.00003848,0.00
 037296,0.00013090,-0.00007271,0.00008439,0.00081888,-0.00089735,0.0001
 2911,0.00000025,-0.00000537,-0.00000333,0.00001631,-0.00000697,0.00000
 032,-0.00000592,0.00000732,-0.00000070,0.00001611,0.00001573,0.0000023
 9,0.00002034,0.00000621,0.00000061,-0.00000887,-0.00002148,-0.00001869
 ,0.00000371,-0.00000154,-0.00000466,-0.00004852,0.00001626,0.00001405,
 0.00000979,-0.00024709,0.00003326,-0.00000805,0.00005620,-0.00005503,0
 .00006272,-0.00001931,0.00005094,-0.00000317,0.00000896,0.00021137,-0.
 00129736,-0.00144960,-0.00105038,0.00689435,-0.00163054,0.00000216,-0.
 00039272,0.00219632,0.00091166,-0.03170955,0.01982224,-0.03070147,-0.1
 7364130,0.05418407,-0.05561989,-0.09205124,-0.02034092,0.01230931,-0.0
 0284269,-0.00380896,0.00104001,-0.01108793,-0.03304640,0.00905453,0.00
 843769,0.01588986,-0.00342409,-0.06183230,0.00300041,0.00331784,0.0009
 8898,0.01768521,0.02483162,-0.00127792,-0.00252414,-0.00638593,0.00015
 996,-0.01169672,-0.01477253,0.35801065,0.00008726,0.00004440,0.0000013
 7,0.00001256,0.00000557,-0.00001463,0.00002214,0.00000745,0.00007132,0
 .00021131,-0.00024099,-0.00007677,-0.00017412,0.00000590,0.00006295,0.
 00000085,-0.00000874,-0.00000664,0.00010907,-0.00000175,0.00021290,-0.
 00001954,0.00000423,0.00000688,-0.00006066,-0.00004765,-0.00002657,-0.
 00053823,-0.00000857,-0.00019663,-0.00006483,0.00002945,-0.00004356,-0
 .00040357,0.00042955,-0.00008429,0.00000065,0.00000214,0.00000165,-0.0
 0000897,0.00000319,-0.00000035,0.00000334,-0.00000258,0.00000107,-0.00
 000896,-0.00000829,-0.00000065,-0.00001062,-0.00000414,0.00000029,0.00
 000136,0.00001298,0.00000950,-0.00000196,0.00000049,0.00000217,0.00002
 588,-0.00000558,-0.00000575,-0.00001262,0.00013795,-0.00001483,0.00000
 386,-0.00002300,0.00003152,-0.00003221,0.00000968,-0.00002652,0.000008
 07,-0.00000167,-0.00010898,0.00057306,0.00086041,0.00049986,-0.0059124
 4,0.00035548,0.00175261,0.00032739,-0.00118173,0.00004531,0.01682520,-
 0.00332951,0.00604625,0.07631806,-0.07988233,0.04665362,-0.07218032,-0
 .10411536,0.02699072,-0.00635880,-0.01901007,0.00811075,-0.00185244,-0
 .00904089,0.00287998,-0.00162125,-0.01239568,0.00272568,0.03459747,-0.
 08210115,-0.03893845,-0.00096734,-0.00589221,-0.00882130,0.00269609,-0
 .01501526,-0.02733546,-0.00405597,0.00641970,0.00922840,-0.03753875,0.
 32398855,-0.00011010,-0.00005375,-0.00000101,-0.00001770,-0.00000016,0
 .00001933,-0.00002784,-0.00000769,-0.00009248,-0.00029965,0.00034529,0
 .00009992,0.00023476,-0.00002192,-0.00009125,-0.00000349,0.00001463,0.
 00000979,-0.00014040,-0.00000450,-0.00026554,0.00002593,-0.00001272,-0
 .00001257,0.00008801,0.00004873,0.00003256,0.00067444,-0.00003084,0.00
 028228,0.00008677,-0.00005099,0.00005602,0.00055059,-0.00064013,0.0001
 1274,-0.00000023,-0.00000373,-0.00000253,0.00001123,-0.00000505,-0.000
 00024,-0.00000341,0.00000558,0.00000038,0.00001071,0.00001096,0.000001
 35,0.00001460,0.00000440,0.00000039,-0.00000677,-0.00001457,-0.0000116
 1,0.00000065,0.00000121,-0.00000640,-0.00003256,0.00001215,0.00001261,
 0.00000354,-0.00016587,0.00001309,0.00000117,0.00003462,-0.00004830,0.
 00005029,-0.00001270,0.00003515,-0.00001030,0.00002618,0.00014449,-0.0
 0077363,-0.00063513,-0.00116275,0.01038801,-0.00112330,-0.00575829,-0.
 00003278,0.00162618,0.00008759,-0.02078301,0.00339753,0.00851542,-0.11
 545867,0.06168287,-0.13000179,0.02115568,0.01429857,-0.06327549,-0.011
 42161,-0.01853475,0.00890629,0.00444075,0.01313013,-0.00435666,0.00891
 162,0.01531837,-0.00627477,0.04722471,-0.03851537,-0.11263282,-0.00192
 717,-0.01273343,-0.01901942,-0.00303028,0.00167335,0.00196780,0.000089
 40,-0.00943072,-0.01581431,0.06011675,-0.02963342,0.33853103\\0.000002
 29,-0.00000785,0.00000019,0.00000085,-0.00000370,-0.00000197,0.0000016
 3,-0.00000399,0.00000009,-0.00000839,0.00000257,0.00000223,0.00000042,
 0.00000183,-0.00000400,-0.00000105,0.00000001,-0.00000428,-0.00000394,
 0.00000049,0.00000072,-0.00000135,-0.00000546,0.00000051,-0.00000160,-
 0.00000326,-0.00000173,-0.00000415,0.00002045,-0.00000535,0.00000420,-
 0.00000141,-0.00000138,0.00000106,-0.00000874,-0.00000515,-0.00000294,
 -0.00000339,-0.00000155,-0.00000071,-0.00000614,-0.00000102,-0.0000019
 6,-0.00000444,-0.00000222,0.00000104,-0.00000059,0.00000131,0.00000034
 ,-0.00000435,-0.00000052,0.00000195,-0.00000332,0.00000066,0.00000118,
 -0.00000265,0.00000108,-0.00000190,-0.00000395,-0.00000207,0.00000910,
 -0.00000961,0.00000332,-0.00000347,0.00000355,-0.00000189,-0.00000548,
 -0.00000007,0.00000018,-0.00000066,0.00000306,-0.00000037,0.00000634,-
 0.00001211,0.00000234,-0.00001466,-0.00000492,0.00001678,0.00000436,0.
 00000403,-0.00000590,0.00001275,0.00000967,-0.00000244,-0.00000292,0.0
 0000153,-0.00000154,0.00000203,0.00003402,-0.00000454,0.00000771,-0.00
 000409,0.00000603,0.00000134,0.00000327,-0.00000101,0.00000687,-0.0000
 0629,0.00000582,0.00000628,0.00000892,-0.00001873,-0.00000095,0.000003
 48,0.00000585,-0.00000007,-0.00000115,0.00000473,-0.00000646,0.0000054
 1,0.00000620,-0.00000910,-0.00000081,0.00000963\\\@


 Other things may change us, but we start and end with family.
 -- Anthony Brandt
 Job cpu time:       0 days 12 hours 46 minutes 40.6 seconds.
 Elapsed time:       0 days  0 hours 31 minutes 59.7 seconds.
 File lengths (MBytes):  RWF=   1112 Int=      0 D2E=      0 Chk=     33 Scr=      1
 Normal termination of Gaussian 16 at Mon Dec 10 20:06:48 2018.
