 Entering Gaussian System, Link 0=/nopt/nrel/apps/gaussian/g16B/g16/g16
 Initial command:
 /nopt/nrel/apps/gaussian/g16B/g16/l1.exe "/scratch/ykim/gaussianScratch.558289/Gau-181878.inp" -scrdir="/scratch/ykim/gaussianScratch.558289/"
 Default is to use a total of  36 processors:
                               36 via shared-memory
                                1 via Linda
 Entering Link 1 = /nopt/nrel/apps/gaussian/g16B/g16/l1.exe PID=    181880.
  
 Copyright (c) 1988-2017, Gaussian, Inc.  All Rights Reserved.
  
 This is part of the Gaussian(R) 16 program.  It is based on
 the Gaussian(R) 09 system (copyright 2009, Gaussian, Inc.),
 the Gaussian(R) 03 system (copyright 2003, Gaussian, Inc.),
 the Gaussian(R) 98 system (copyright 1998, Gaussian, Inc.),
 the Gaussian(R) 94 system (copyright 1995, Gaussian, Inc.),
 the Gaussian 92(TM) system (copyright 1992, Gaussian, Inc.),
 the Gaussian 90(TM) system (copyright 1990, Gaussian, Inc.),
 the Gaussian 88(TM) system (copyright 1988, Gaussian, Inc.),
 the Gaussian 86(TM) system (copyright 1986, Carnegie Mellon
 University), and the Gaussian 82(TM) system (copyright 1983,
 Carnegie Mellon University). Gaussian is a federally registered
 trademark of Gaussian, Inc.
  
 This software contains proprietary and confidential information,
 including trade secrets, belonging to Gaussian, Inc.
  
 This software is provided under written license and may be
 used, copied, transmitted, or stored only in accord with that
 written license.
  
 The following legend is applicable only to US Government
 contracts under FAR:
  
                    RESTRICTED RIGHTS LEGEND
  
 Use, reproduction and disclosure by the US Government is
 subject to restrictions as set forth in subparagraphs (a)
 and (c) of the Commercial Computer Software - Restricted
 Rights clause in FAR 52.227-19.
  
 Gaussian, Inc.
 340 Quinnipiac St., Bldg. 40, Wallingford CT 06492
  
  
 ---------------------------------------------------------------
 Warning -- This program may not be used in any manner that
 competes with the business of Gaussian, Inc. or will provide
 assistance to any competitor of Gaussian, Inc.  The licensee
 of this program is prohibited from giving any competitor of
 Gaussian, Inc. access to this program.  By using this program,
 the user acknowledges that Gaussian, Inc. is engaged in the
 business of creating and licensing software in the field of
 computational chemistry and represents and warrants to the
 licensee that it is not a competitor of Gaussian, Inc. and that
 it will not use this program in any manner prohibited above.
 ---------------------------------------------------------------
  

 Cite this work as:
 Gaussian 16, Revision B.01,
 M. J. Frisch, G. W. Trucks, H. B. Schlegel, G. E. Scuseria, 
 M. A. Robb, J. R. Cheeseman, G. Scalmani, V. Barone, 
 G. A. Petersson, H. Nakatsuji, X. Li, M. Caricato, A. V. Marenich, 
 J. Bloino, B. G. Janesko, R. Gomperts, B. Mennucci, H. P. Hratchian, 
 J. V. Ortiz, A. F. Izmaylov, J. L. Sonnenberg, D. Williams-Young, 
 F. Ding, F. Lipparini, F. Egidi, J. Goings, B. Peng, A. Petrone, 
 T. Henderson, D. Ranasinghe, V. G. Zakrzewski, J. Gao, N. Rega, 
 G. Zheng, W. Liang, M. Hada, M. Ehara, K. Toyota, R. Fukuda, 
 J. Hasegawa, M. Ishida, T. Nakajima, Y. Honda, O. Kitao, H. Nakai, 
 T. Vreven, K. Throssell, J. A. Montgomery, Jr., J. E. Peralta, 
 F. Ogliaro, M. J. Bearpark, J. J. Heyd, E. N. Brothers, K. N. Kudin, 
 V. N. Staroverov, T. A. Keith, R. Kobayashi, J. Normand, 
 K. Raghavachari, A. P. Rendell, J. C. Burant, S. S. Iyengar, 
 J. Tomasi, M. Cossi, J. M. Millam, M. Klene, C. Adamo, R. Cammi, 
 J. W. Ochterski, R. L. Martin, K. Morokuma, O. Farkas, 
 J. B. Foresman, and D. J. Fox, Gaussian, Inc., Wallingford CT, 2016.
 
 ******************************************
 Gaussian 16:  ES64L-G16RevB.01 20-Dec-2017
                23-Jan-2019 
 ******************************************
 %nprocshared=18
 Will use up to   18 processors via shared memory.
 %mem=24GB
 Default route: CacheSize=180224 MaxDisk=256GB
 ----------------------------------------------------------------------
 # opt freq 6-311++g(d,p) m062x scf=(xqc,maxconventionalcycles=400) scr
 f=(smd,solvent=2-butanol) temperature=443.15
 ----------------------------------------------------------------------
 1/4=180224,18=20,19=15,26=3,38=1,112=443150/1,3;
 2/4=180224,9=110,12=2,17=6,18=5,40=1/2;
 3/4=180224,5=4,6=6,7=1111,11=2,25=1,30=1,70=32201,71=1,72=61,74=-55/1,2,3;
 4/4=180224/1;
 5/4=180224,5=2,8=3,13=1,38=5,53=61,85=400/2,8;
 6/4=180224,7=2,8=2,9=2,10=2,28=1/1;
 7/4=180224/1,2,3,16;
 1/4=180224,18=20,19=15,26=3/3(2);
 2/4=180224,9=110/2;
 99/4=180224/99;
 2/4=180224,9=110/2;
 3/4=180224,5=4,6=6,7=1111,11=2,25=1,30=1,70=32205,71=1,72=61,74=-55/1,2,3;
 4/4=180224,5=5,16=3,69=1/1;
 5/4=180224,5=2,8=3,13=1,38=5,53=61,85=400/2,8;
 7/4=180224/1,2,3,16;
 1/4=180224,18=20,19=15,26=3/3(-5);
 2/4=180224,9=110/2;
 6/4=180224,7=2,8=2,9=2,10=2,19=2,28=1/1;
 99/4=180224,9=1/99;
 -------------------
 Title Card Required
 -------------------
 Symbolic Z-matrix:
 Charge =  1 Multiplicity = 1
 C                     3.35759  -0.2727   -1.13913 
 C                     3.56627   1.10756  -0.49039 
 C                     2.71669   1.03703   0.78983 
 C                     1.5645    0.13281   0.30814 
 O                     2.19813  -0.83872  -0.49349 
 C                     4.51636  -1.22974  -0.98861 
 C                     0.80413  -0.58073   1.41022 
 O                     4.82219  -1.35809   0.39606 
 O                     3.03155   2.07568  -1.38925 
 O                     0.63816   0.88562  -0.4568 
 O                     3.41726   0.49274   1.88017 
 O                    -0.16366  -1.49013   0.8789 
 H                     4.23964  -2.20135  -1.40824 
 H                     5.37262  -0.83288  -1.54192 
 H                     5.6423   -1.85168   0.50465 
 H                     3.14919  -0.13967  -2.20424 
 H                     4.61549   1.31288  -0.26705 
 H                     3.19787   2.95657  -1.03069 
 H                     2.34642   2.01951   1.08466 
 H                     3.96447  -0.24825   1.56299 
 H                     1.12627   1.467    -1.06309 
 H                     0.2562    0.14861   2.00766 
 H                     1.50388  -1.12154   2.04535 
 H                     0.28961  -2.20479   0.41073 
 H                    -1.16444   0.50433  -0.73814 
 O                    -1.82435  -0.18495  -0.51034 
 H                    -1.28272  -0.81413   0.08508 
 H                    -2.67369   0.23191  -0.01871 
 O                    -3.81511   0.74828   0.59727 
 H                    -3.70461   1.68462   0.81454 
 C                    -5.07053   0.55069  -0.11397 
 H                    -4.96029   0.99638  -1.10841 
 C                    -6.18333   1.24093   0.6474 
 H                    -7.11721   1.18198   0.08574 
 H                    -6.32781   0.76937   1.62331 
 C                    -5.25062  -0.95301  -0.24212 
 H                    -4.40609  -1.37149  -0.74861 
 H                    -5.33287  -1.38672   0.73257 
 H                    -6.1397   -1.15943  -0.80054 
 C                    -5.85639   2.7313    0.85593 
 H                    -6.65363   3.19936   1.39464 
 H                    -4.94756   2.82249   1.41326 
 H                    -5.7408    3.20757  -0.09523 
 
 Add virtual bond connecting atoms O29        and H28        Dist= 2.64D+00.
 Add virtual bond connecting atoms H27        and O12        Dist= 2.89D+00.

 GradGradGradGradGradGradGradGradGradGradGradGradGradGradGradGradGradGrad
 Berny optimization.
 Initialization pass.
                           ----------------------------
                           !    Initial Parameters    !
                           ! (Angstroms and Degrees)  !
 --------------------------                            --------------------------
 ! Name  Definition              Value          Derivative Info.                !
 --------------------------------------------------------------------------------
 ! R1    R(1,2)                  1.5393         estimate D2E/DX2                !
 ! R2    R(1,5)                  1.4428         estimate D2E/DX2                !
 ! R3    R(1,6)                  1.5104         estimate D2E/DX2                !
 ! R4    R(1,16)                 1.0934         estimate D2E/DX2                !
 ! R5    R(2,3)                  1.5381         estimate D2E/DX2                !
 ! R6    R(2,9)                  1.4252         estimate D2E/DX2                !
 ! R7    R(2,17)                 1.0922         estimate D2E/DX2                !
 ! R8    R(3,4)                  1.5418         estimate D2E/DX2                !
 ! R9    R(3,11)                 1.4057         estimate D2E/DX2                !
 ! R10   R(3,19)                 1.0905         estimate D2E/DX2                !
 ! R11   R(4,5)                  1.41           estimate D2E/DX2                !
 ! R12   R(4,7)                  1.5172         estimate D2E/DX2                !
 ! R13   R(4,10)                 1.4177         estimate D2E/DX2                !
 ! R14   R(6,8)                  1.4238         estimate D2E/DX2                !
 ! R15   R(6,13)                 1.0939         estimate D2E/DX2                !
 ! R16   R(6,14)                 1.094          estimate D2E/DX2                !
 ! R17   R(7,12)                 1.4304         estimate D2E/DX2                !
 ! R18   R(7,22)                 1.0905         estimate D2E/DX2                !
 ! R19   R(7,23)                 1.0888         estimate D2E/DX2                !
 ! R20   R(8,15)                 0.9633         estimate D2E/DX2                !
 ! R21   R(9,18)                 0.9655         estimate D2E/DX2                !
 ! R22   R(10,21)                0.9715         estimate D2E/DX2                !
 ! R23   R(11,20)                0.9742         estimate D2E/DX2                !
 ! R24   R(12,24)                0.9671         estimate D2E/DX2                !
 ! R25   R(12,27)                1.5295         estimate D2E/DX2                !
 ! R26   R(25,26)                0.9811         estimate D2E/DX2                !
 ! R27   R(26,27)                1.0216         estimate D2E/DX2                !
 ! R28   R(26,28)                1.0662         estimate D2E/DX2                !
 ! R29   R(28,29)                1.396          estimate D2E/DX2                !
 ! R30   R(29,30)                0.9675         estimate D2E/DX2                !
 ! R31   R(29,31)                1.4564         estimate D2E/DX2                !
 ! R32   R(31,32)                1.0953         estimate D2E/DX2                !
 ! R33   R(31,33)                1.5147         estimate D2E/DX2                !
 ! R34   R(31,36)                1.5199         estimate D2E/DX2                !
 ! R35   R(33,34)                1.0914         estimate D2E/DX2                !
 ! R36   R(33,35)                1.0935         estimate D2E/DX2                !
 ! R37   R(33,40)                1.54           estimate D2E/DX2                !
 ! R38   R(36,37)                1.07           estimate D2E/DX2                !
 ! R39   R(36,38)                1.07           estimate D2E/DX2                !
 ! R40   R(36,39)                1.07           estimate D2E/DX2                !
 ! R41   R(40,41)                1.07           estimate D2E/DX2                !
 ! R42   R(40,42)                1.07           estimate D2E/DX2                !
 ! R43   R(40,43)                1.07           estimate D2E/DX2                !
 ! A1    A(2,1,5)              105.7907         estimate D2E/DX2                !
 ! A2    A(2,1,6)              114.9702         estimate D2E/DX2                !
 ! A3    A(2,1,16)             109.1035         estimate D2E/DX2                !
 ! A4    A(5,1,6)              108.8665         estimate D2E/DX2                !
 ! A5    A(5,1,16)             109.2981         estimate D2E/DX2                !
 ! A6    A(6,1,16)             108.6859         estimate D2E/DX2                !
 ! A7    A(1,2,3)              103.5791         estimate D2E/DX2                !
 ! A8    A(1,2,9)              107.0036         estimate D2E/DX2                !
 ! A9    A(1,2,17)             112.6422         estimate D2E/DX2                !
 ! A10   A(3,2,9)              110.4178         estimate D2E/DX2                !
 ! A11   A(3,2,17)             111.6564         estimate D2E/DX2                !
 ! A12   A(9,2,17)             111.2049         estimate D2E/DX2                !
 ! A13   A(2,3,4)              100.348          estimate D2E/DX2                !
 ! A14   A(2,3,11)             112.8356         estimate D2E/DX2                !
 ! A15   A(2,3,19)             111.7932         estimate D2E/DX2                !
 ! A16   A(4,3,11)             112.8114         estimate D2E/DX2                !
 ! A17   A(4,3,19)             111.0441         estimate D2E/DX2                !
 ! A18   A(11,3,19)            107.9601         estimate D2E/DX2                !
 ! A19   A(3,4,5)              104.2349         estimate D2E/DX2                !
 ! A20   A(3,4,7)              115.0491         estimate D2E/DX2                !
 ! A21   A(3,4,10)             110.2084         estimate D2E/DX2                !
 ! A22   A(5,4,7)              108.3093         estimate D2E/DX2                !
 ! A23   A(5,4,10)             110.6565         estimate D2E/DX2                !
 ! A24   A(7,4,10)             108.3124         estimate D2E/DX2                !
 ! A25   A(1,5,4)              110.1973         estimate D2E/DX2                !
 ! A26   A(1,6,8)              108.5916         estimate D2E/DX2                !
 ! A27   A(1,6,13)             109.2982         estimate D2E/DX2                !
 ! A28   A(1,6,14)             108.6761         estimate D2E/DX2                !
 ! A29   A(8,6,13)             110.323          estimate D2E/DX2                !
 ! A30   A(8,6,14)             110.8812         estimate D2E/DX2                !
 ! A31   A(13,6,14)            109.0367         estimate D2E/DX2                !
 ! A32   A(4,7,12)             111.6096         estimate D2E/DX2                !
 ! A33   A(4,7,22)             109.5876         estimate D2E/DX2                !
 ! A34   A(4,7,23)             109.5869         estimate D2E/DX2                !
 ! A35   A(12,7,22)            106.7842         estimate D2E/DX2                !
 ! A36   A(12,7,23)            109.6169         estimate D2E/DX2                !
 ! A37   A(22,7,23)            109.6053         estimate D2E/DX2                !
 ! A38   A(6,8,15)             109.7965         estimate D2E/DX2                !
 ! A39   A(2,9,18)             108.7175         estimate D2E/DX2                !
 ! A40   A(4,10,21)            109.038          estimate D2E/DX2                !
 ! A41   A(3,11,20)            108.7787         estimate D2E/DX2                !
 ! A42   A(7,12,24)            109.4215         estimate D2E/DX2                !
 ! A43   A(7,12,27)            114.0058         estimate D2E/DX2                !
 ! A44   A(24,12,27)           114.724          estimate D2E/DX2                !
 ! A45   A(25,26,27)           102.2049         estimate D2E/DX2                !
 ! A46   A(25,26,28)           111.6043         estimate D2E/DX2                !
 ! A47   A(27,26,28)           113.226          estimate D2E/DX2                !
 ! A48   A(12,27,26)           164.2695         estimate D2E/DX2                !
 ! A49   A(28,29,30)           111.3249         estimate D2E/DX2                !
 ! A50   A(28,29,31)           116.0489         estimate D2E/DX2                !
 ! A51   A(30,29,31)           109.841          estimate D2E/DX2                !
 ! A52   A(29,31,32)           107.5435         estimate D2E/DX2                !
 ! A53   A(29,31,33)           109.0256         estimate D2E/DX2                !
 ! A54   A(29,31,36)           106.1142         estimate D2E/DX2                !
 ! A55   A(32,31,33)           110.1738         estimate D2E/DX2                !
 ! A56   A(32,31,36)           109.7524         estimate D2E/DX2                !
 ! A57   A(33,31,36)           113.9641         estimate D2E/DX2                !
 ! A58   A(31,33,34)           110.2031         estimate D2E/DX2                !
 ! A59   A(31,33,35)           110.4362         estimate D2E/DX2                !
 ! A60   A(31,33,40)           110.6765         estimate D2E/DX2                !
 ! A61   A(34,33,35)           108.8423         estimate D2E/DX2                !
 ! A62   A(34,33,40)           107.6756         estimate D2E/DX2                !
 ! A63   A(35,33,40)           108.9384         estimate D2E/DX2                !
 ! A64   A(31,36,37)           109.4712         estimate D2E/DX2                !
 ! A65   A(31,36,38)           109.4712         estimate D2E/DX2                !
 ! A66   A(31,36,39)           109.4712         estimate D2E/DX2                !
 ! A67   A(37,36,38)           109.4712         estimate D2E/DX2                !
 ! A68   A(37,36,39)           109.4712         estimate D2E/DX2                !
 ! A69   A(38,36,39)           109.4712         estimate D2E/DX2                !
 ! A70   A(33,40,41)           109.4712         estimate D2E/DX2                !
 ! A71   A(33,40,42)           109.4712         estimate D2E/DX2                !
 ! A72   A(33,40,43)           109.4712         estimate D2E/DX2                !
 ! A73   A(41,40,42)           109.4713         estimate D2E/DX2                !
 ! A74   A(41,40,43)           109.4712         estimate D2E/DX2                !
 ! A75   A(42,40,43)           109.4712         estimate D2E/DX2                !
 ! A76   L(26,28,29,37,-1)     178.0002         estimate D2E/DX2                !
 ! A77   L(26,28,29,37,-2)     180.463          estimate D2E/DX2                !
 ! D1    D(5,1,2,3)             16.1932         estimate D2E/DX2                !
 ! D2    D(5,1,2,9)           -100.4968         estimate D2E/DX2                !
 ! D3    D(5,1,2,17)           136.9976         estimate D2E/DX2                !
 ! D4    D(6,1,2,3)           -103.9647         estimate D2E/DX2                !
 ! D5    D(6,1,2,9)            139.3452         estimate D2E/DX2                !
 ! D6    D(6,1,2,17)            16.8397         estimate D2E/DX2                !
 ! D7    D(16,1,2,3)           133.6712         estimate D2E/DX2                !
 ! D8    D(16,1,2,9)            16.9811         estimate D2E/DX2                !
 ! D9    D(16,1,2,17)         -105.5244         estimate D2E/DX2                !
 ! D10   D(2,1,5,4)              9.5839         estimate D2E/DX2                !
 ! D11   D(6,1,5,4)            133.6568         estimate D2E/DX2                !
 ! D12   D(16,1,5,4)          -107.7633         estimate D2E/DX2                !
 ! D13   D(2,1,6,8)             55.008          estimate D2E/DX2                !
 ! D14   D(2,1,6,13)           175.4082         estimate D2E/DX2                !
 ! D15   D(2,1,6,14)           -65.6997         estimate D2E/DX2                !
 ! D16   D(5,1,6,8)            -63.4397         estimate D2E/DX2                !
 ! D17   D(5,1,6,13)            56.9604         estimate D2E/DX2                !
 ! D18   D(5,1,6,14)           175.8526         estimate D2E/DX2                !
 ! D19   D(16,1,6,8)           177.5967         estimate D2E/DX2                !
 ! D20   D(16,1,6,13)          -62.0032         estimate D2E/DX2                !
 ! D21   D(16,1,6,14)           56.889          estimate D2E/DX2                !
 ! D22   D(1,2,3,4)            -33.1046         estimate D2E/DX2                !
 ! D23   D(1,2,3,11)            87.1945         estimate D2E/DX2                !
 ! D24   D(1,2,3,19)          -150.8879         estimate D2E/DX2                !
 ! D25   D(9,2,3,4)             81.1581         estimate D2E/DX2                !
 ! D26   D(9,2,3,11)          -158.5427         estimate D2E/DX2                !
 ! D27   D(9,2,3,19)           -36.6251         estimate D2E/DX2                !
 ! D28   D(17,2,3,4)          -154.5733         estimate D2E/DX2                !
 ! D29   D(17,2,3,11)          -34.2741         estimate D2E/DX2                !
 ! D30   D(17,2,3,19)           87.6434         estimate D2E/DX2                !
 ! D31   D(1,2,9,18)          -176.5911         estimate D2E/DX2                !
 ! D32   D(3,2,9,18)            71.3342         estimate D2E/DX2                !
 ! D33   D(17,2,9,18)          -53.1932         estimate D2E/DX2                !
 ! D34   D(2,3,4,5)             39.6638         estimate D2E/DX2                !
 ! D35   D(2,3,4,7)            158.1081         estimate D2E/DX2                !
 ! D36   D(2,3,4,10)           -79.0995         estimate D2E/DX2                !
 ! D37   D(11,3,4,5)           -80.6528         estimate D2E/DX2                !
 ! D38   D(11,3,4,7)            37.7916         estimate D2E/DX2                !
 ! D39   D(11,3,4,10)          160.5839         estimate D2E/DX2                !
 ! D40   D(19,3,4,5)           157.9983         estimate D2E/DX2                !
 ! D41   D(19,3,4,7)           -83.5573         estimate D2E/DX2                !
 ! D42   D(19,3,4,10)           39.235          estimate D2E/DX2                !
 ! D43   D(2,3,11,20)          -39.7052         estimate D2E/DX2                !
 ! D44   D(4,3,11,20)           73.1591         estimate D2E/DX2                !
 ! D45   D(19,3,11,20)        -163.7584         estimate D2E/DX2                !
 ! D46   D(3,4,5,1)            -31.4907         estimate D2E/DX2                !
 ! D47   D(7,4,5,1)           -154.45           estimate D2E/DX2                !
 ! D48   D(10,4,5,1)            86.9666         estimate D2E/DX2                !
 ! D49   D(3,4,7,12)          -174.6599         estimate D2E/DX2                !
 ! D50   D(3,4,7,22)            67.2648         estimate D2E/DX2                !
 ! D51   D(3,4,7,23)           -53.0427         estimate D2E/DX2                !
 ! D52   D(5,4,7,12)           -58.5212         estimate D2E/DX2                !
 ! D53   D(5,4,7,22)          -176.5965         estimate D2E/DX2                !
 ! D54   D(5,4,7,23)            63.096          estimate D2E/DX2                !
 ! D55   D(10,4,7,12)           61.539          estimate D2E/DX2                !
 ! D56   D(10,4,7,22)          -56.5363         estimate D2E/DX2                !
 ! D57   D(10,4,7,23)         -176.8438         estimate D2E/DX2                !
 ! D58   D(3,4,10,21)           43.4408         estimate D2E/DX2                !
 ! D59   D(5,4,10,21)          -71.3182         estimate D2E/DX2                !
 ! D60   D(7,4,10,21)          170.1003         estimate D2E/DX2                !
 ! D61   D(1,6,8,15)          -171.0931         estimate D2E/DX2                !
 ! D62   D(13,6,8,15)           69.1441         estimate D2E/DX2                !
 ! D63   D(14,6,8,15)          -51.7577         estimate D2E/DX2                !
 ! D64   D(4,7,12,24)           65.6561         estimate D2E/DX2                !
 ! D65   D(4,7,12,27)          -64.322          estimate D2E/DX2                !
 ! D66   D(22,7,12,24)        -174.6008         estimate D2E/DX2                !
 ! D67   D(22,7,12,27)          55.4212         estimate D2E/DX2                !
 ! D68   D(23,7,12,24)         -55.9437         estimate D2E/DX2                !
 ! D69   D(23,7,12,27)         174.0782         estimate D2E/DX2                !
 ! D70   D(7,12,27,26)          32.8981         estimate D2E/DX2                !
 ! D71   D(24,12,27,26)        -94.3882         estimate D2E/DX2                !
 ! D72   D(25,26,27,12)         -3.0964         estimate D2E/DX2                !
 ! D73   D(28,26,27,12)       -123.2787         estimate D2E/DX2                !
 ! D74   D(25,26,29,30)         -8.042          estimate D2E/DX2                !
 ! D75   D(25,26,29,31)        118.5059         estimate D2E/DX2                !
 ! D76   D(27,26,29,30)        107.4254         estimate D2E/DX2                !
 ! D77   D(27,26,29,31)       -126.0267         estimate D2E/DX2                !
 ! D78   D(28,29,31,32)        -57.1438         estimate D2E/DX2                !
 ! D79   D(28,29,31,33)       -176.5898         estimate D2E/DX2                !
 ! D80   D(28,29,31,36)         60.2607         estimate D2E/DX2                !
 ! D81   D(30,29,31,32)         70.2066         estimate D2E/DX2                !
 ! D82   D(30,29,31,33)        -49.2395         estimate D2E/DX2                !
 ! D83   D(30,29,31,36)       -172.389          estimate D2E/DX2                !
 ! D84   D(29,31,33,34)        174.9177         estimate D2E/DX2                !
 ! D85   D(29,31,33,35)        -64.7927         estimate D2E/DX2                !
 ! D86   D(29,31,33,40)         55.9258         estimate D2E/DX2                !
 ! D87   D(32,31,33,34)         57.1181         estimate D2E/DX2                !
 ! D88   D(32,31,33,35)        177.4077         estimate D2E/DX2                !
 ! D89   D(32,31,33,40)        -61.8738         estimate D2E/DX2                !
 ! D90   D(36,31,33,34)        -66.7521         estimate D2E/DX2                !
 ! D91   D(36,31,33,35)         53.5375         estimate D2E/DX2                !
 ! D92   D(36,31,33,40)        174.256          estimate D2E/DX2                !
 ! D93   D(29,31,36,37)        -57.35           estimate D2E/DX2                !
 ! D94   D(29,31,36,38)         62.65           estimate D2E/DX2                !
 ! D95   D(29,31,36,39)       -177.35           estimate D2E/DX2                !
 ! D96   D(32,31,36,37)         58.5698         estimate D2E/DX2                !
 ! D97   D(32,31,36,38)        178.5698         estimate D2E/DX2                !
 ! D98   D(32,31,36,39)        -61.4302         estimate D2E/DX2                !
 ! D99   D(33,31,36,37)       -177.3329         estimate D2E/DX2                !
 ! D100  D(33,31,36,38)        -57.3329         estimate D2E/DX2                !
 ! D101  D(33,31,36,39)         62.6671         estimate D2E/DX2                !
 ! D102  D(31,33,40,41)        180.0            estimate D2E/DX2                !
 ! D103  D(31,33,40,42)        -60.0            estimate D2E/DX2                !
 ! D104  D(31,33,40,43)         60.0            estimate D2E/DX2                !
 ! D105  D(34,33,40,41)         59.4905         estimate D2E/DX2                !
 ! D106  D(34,33,40,42)        179.4905         estimate D2E/DX2                !
 ! D107  D(34,33,40,43)        -60.5095         estimate D2E/DX2                !
 ! D108  D(35,33,40,41)        -58.3953         estimate D2E/DX2                !
 ! D109  D(35,33,40,42)         61.6047         estimate D2E/DX2                !
 ! D110  D(35,33,40,43)       -178.3953         estimate D2E/DX2                !
 --------------------------------------------------------------------------------
 Trust Radius=3.00D-01 FncErr=1.00D-07 GrdErr=1.00D-06 EigMax=2.50D+02 EigMin=1.00D-04
 Number of steps in this run=    240 maximum allowed number of steps=    258.
 GradGradGradGradGradGradGradGradGradGradGradGradGradGradGradGradGradGrad

                          Input orientation:                          
 ---------------------------------------------------------------------
 Center     Atomic      Atomic             Coordinates (Angstroms)
 Number     Number       Type             X           Y           Z
 ---------------------------------------------------------------------
      1          6           0        3.357586   -0.272704   -1.139133
      2          6           0        3.566270    1.107560   -0.490390
      3          6           0        2.716685    1.037033    0.789832
      4          6           0        1.564497    0.132814    0.308135
      5          8           0        2.198133   -0.838722   -0.493490
      6          6           0        4.516358   -1.229741   -0.988614
      7          6           0        0.804131   -0.580732    1.410216
      8          8           0        4.822193   -1.358092    0.396056
      9          8           0        3.031548    2.075681   -1.389253
     10          8           0        0.638160    0.885624   -0.456799
     11          8           0        3.417262    0.492741    1.880173
     12          8           0       -0.163659   -1.490126    0.878899
     13          1           0        4.239642   -2.201351   -1.408242
     14          1           0        5.372618   -0.832884   -1.541916
     15          1           0        5.642296   -1.851683    0.504653
     16          1           0        3.149194   -0.139674   -2.204239
     17          1           0        4.615489    1.312879   -0.267046
     18          1           0        3.197872    2.956574   -1.030685
     19          1           0        2.346417    2.019506    1.084661
     20          1           0        3.964474   -0.248254    1.562989
     21          1           0        1.126270    1.466997   -1.063088
     22          1           0        0.256196    0.148608    2.007664
     23          1           0        1.503882   -1.121539    2.045350
     24          1           0        0.289605   -2.204787    0.410734
     25          1           0       -1.164442    0.504334   -0.738136
     26          8           0       -1.824349   -0.184949   -0.510341
     27          1           0       -1.282721   -0.814130    0.085075
     28          1           0       -2.673692    0.231908   -0.018706
     29          8           0       -3.815107    0.748276    0.597270
     30          1           0       -3.704605    1.684617    0.814536
     31          6           0       -5.070528    0.550689   -0.113973
     32          1           0       -4.960291    0.996375   -1.108405
     33          6           0       -6.183331    1.240926    0.647395
     34          1           0       -7.117210    1.181980    0.085735
     35          1           0       -6.327809    0.769370    1.623312
     36          6           0       -5.250623   -0.953005   -0.242122
     37          1           0       -4.406089   -1.371488   -0.748613
     38          1           0       -5.332872   -1.386720    0.732571
     39          1           0       -6.139698   -1.159431   -0.800543
     40          6           0       -5.856385    2.731302    0.855928
     41          1           0       -6.653634    3.199361    1.394645
     42          1           0       -4.947559    2.822492    1.413260
     43          1           0       -5.740799    3.207574   -0.095232
 ---------------------------------------------------------------------
                    Distance matrix (angstroms):
                    1          2          3          4          5
     1  C    0.000000
     2  C    1.539333   0.000000
     3  C    2.418072   1.538095   0.000000
     4  C    2.339700   2.365347   1.541811   0.000000
     5  O    1.442762   2.379038   2.331152   1.409957   0.000000
     6  C    1.510407   2.571745   3.397051   3.500228   2.402543
     7  C    3.621353   3.753937   2.580679   1.517197   2.373583
     8  O    2.383264   2.905610   3.213230   3.583729   2.818994
     9  O    2.384066   1.425181   2.434407   2.967844   3.160810
    10  O    3.033576   2.936701   2.428432   1.417726   2.325560
    11  O    3.115393   2.453523   1.405669   2.456337   2.982171
    12  O    4.237185   4.747135   3.832864   2.438489   2.808174
    13  H    2.137784   3.499253   4.199769   3.943435   2.619406
    14  H    2.129880   2.852003   3.998452   4.342470   3.343140
    15  H    3.227244   3.749282   4.121311   4.539305   3.726210
    16  H    1.093424   2.160283   3.245946   2.982874   2.078424
    17  H    2.203844   1.092199   2.190557   3.321436   3.244114
    18  H    3.235043   1.961247   2.688952   3.526184   3.961354
    19  H    3.349918   2.190998   1.090539   2.184948   3.268335
    20  H    2.769544   2.492622   1.951080   2.734915   2.774476
    21  H    2.830391   2.531951   2.479436   1.962738   2.605700
    22  H    4.438294   4.256343   2.885554   2.144831   3.316883
    23  H    3.781226   3.956299   2.776085   2.143593   2.647202
    24  H    3.943037   4.745545   4.067411   2.664630   2.515201
    25  H    4.605792   4.775447   4.204950   2.946153   3.629127
    26  O    5.220683   5.543442   4.879004   3.500736   4.075299
    27  H    4.829521   5.247549   4.463041   3.008838   3.528695
    28  H    6.155185   6.318732   5.509821   4.251928   5.010623
    29  O    7.450169   7.469727   6.541007   5.422410   6.314062
    30  H    7.584357   7.409551   6.453909   5.516155   6.551373
    31  C    8.530067   8.662914   7.854558   6.661558   7.409988
    32  H    8.414189   8.549652   7.908282   6.732398   7.415439
    33  C    9.824045   9.816673   8.903491   7.834019   8.710654
    34  H   10.646021  10.699262   9.860135   8.747700   9.549573
    35  H   10.125408  10.122989   9.086760   8.026418   8.930761
    36  C    8.681515   9.057879   8.276665   6.922980   7.453872
    37  H    7.850763   8.352895   7.674744   6.247202   6.630586
    38  H    8.959262   9.322650   8.406737   7.075509   7.649808
    39  H    9.544597   9.972024   9.262250   7.890100   8.349644
    40  C    9.894523   9.655855   8.739133   7.881732   8.912983
    41  H   10.894943  10.600727   9.635576   8.838658   9.910849
    42  H    9.223360   8.891015   7.894122   7.131798   8.252339
    43  H    9.797075   9.549227   8.776310   7.936259   8.919516
                    6          7          8          9         10
     6  C    0.000000
     7  C    4.467239   0.000000
     8  O    1.423840   4.216353   0.000000
     9  O    3.645681   4.455889   4.264333   0.000000
    10  O    4.449496   2.379809   4.823666   2.830903   0.000000
    11  O    3.522058   2.863854   2.757176   3.652892   3.652287
    12  O    5.045589   1.430354   5.010917   5.298003   2.840984
    13  H    1.093931   4.729994   2.075077   4.444418   4.837906
    14  H    1.093993   5.445157   2.081957   3.736799   5.152266
    15  H    1.970887   5.083621   0.963325   5.082034   5.784342
    16  H    2.129584   4.331067   3.323402   2.363438   3.226465
    17  H    2.644883   4.574431   2.759804   2.085686   4.004710
    18  H    4.389238   4.919403   4.826008   0.965509   3.342201
    19  H    4.423202   3.040702   4.244033   2.567647   2.565137
    20  H    2.789009   3.181454   1.824597   3.871273   4.053343
    21  H    4.332510   3.227104   4.875456   2.026565   0.971510
    22  H    5.387625   1.090465   5.071070   4.791162   2.600513
    23  H    4.276875   1.088815   3.713128   4.934823   3.322488
    24  H    4.557887   1.975160   4.611015   5.392644   3.228737
    25  H    5.944850   3.109351   6.371406   4.527628   1.863842
    26  O    6.443982   3.279343   6.809871   5.427953   2.685692
    27  H    5.912263   2.483027   6.136985   5.397923   2.621560
    28  H    7.400943   3.846746   7.673879   6.150420   3.404061
    29  O    8.708667   4.874885   8.892706   7.251549   4.578374
    30  H    8.906687   5.080880   9.063084   7.098266   4.595029
    31  C    9.789960   6.173725  10.088087   8.342396   5.728772
    32  H    9.735339   6.485313  10.173687   8.069279   5.637332
    33  C   11.102435   7.261195  11.311040   9.474109   6.919409
    34  H   11.929398   8.222472  12.210553  10.294250   7.779970
    35  H   11.332015   7.261732  11.417303   9.918647   7.270839
    36  C    9.799375   6.287198  10.101138   8.892874   6.172877
    37  H    8.926799   5.694930   9.299012   8.222642   5.533910
    38  H    9.999723   6.226687  10.160680   9.298058   6.498567
    39  H   10.657947   7.310206  11.028797   9.742909   7.088002
    40  C   11.255487   7.459174  11.444066   9.190540   6.878146
    41  H   12.250125   8.361076  12.387984  10.139797   7.870926
    42  H   10.571438   6.683104  10.675206   8.489873   6.200712
    43  H   11.211475   7.710626  11.517963   8.939225   6.798037
                   11         12         13         14         15
    11  O    0.000000
    12  O    4.213942   0.000000
    13  H    4.329909   5.012576   0.000000
    14  H    4.158292   6.078049   1.781630   0.000000
    15  H    3.512713   5.829228   2.397681   2.301982   0.000000
    16  H    4.141767   4.722759   2.464386   2.421327   4.060127
    17  H    2.592089   5.657763   3.713947   2.608225   3.415304
    18  H    3.819908   5.892329   5.275607   4.398962   5.608191
    19  H    2.027452   4.319761   5.254950   4.918631   5.117161
    20  H    0.974228   4.364826   3.566303   3.459060   2.550715
    21  H    3.854945   3.765608   4.823795   4.852855   5.819445
    22  H    3.182298   2.033676   5.749658   6.304016   5.938879
    23  H    2.508826   2.068129   4.536262   5.283835   4.475861
    24  H    4.383851   0.967144   4.348733   5.615334   5.365147
    25  H    5.277091   2.755765   6.080617   6.720667   7.309379
    26  O    5.800716   2.528115   6.453223   7.299336   7.717448
    27  H    5.198089   1.529519   5.886499   6.851349   7.014872
    28  H    6.385413   3.173541   7.459608   8.258151   8.589000
    29  O    7.349714   4.292183   8.809163   9.565065   9.808712
    30  H    7.299119   4.756200   9.118802   9.710132   9.998300
    31  C    8.719091   5.406300   9.794290  10.630738  10.996303
    32  H    8.908908   5.756713   9.744441  10.502530  11.096317
    33  C    9.708291   6.614279  11.167510  11.942936  12.224159
    34  H   10.708415   7.491404  11.943910  12.755576  13.121875
    35  H    9.752380   6.607285  11.387999  12.226442  12.304663
    36  C    9.040274   5.236639   9.642787  10.703137  10.955409
    37  H    8.461128   4.545446   8.710479   9.825606  10.137618
    38  H    9.022982   5.172318   9.842750  10.958446  10.987377
    39  H   10.062375   6.216343  10.449191  11.540784  11.874263
    40  C    9.594830   7.087179  11.462430  12.022628  12.383328
    41  H   10.439562   8.023531  12.477472  13.019720  13.322725
    42  H    8.695744   6.462965  10.844562  11.340233  11.611137
    43  H    9.754108   7.356753  11.427584  11.913280  12.471199
                   16         17         18         19         20
    16  H    0.000000
    17  H    2.830662   0.000000
    18  H    3.311548   2.300981   0.000000
    19  H    4.015392   2.734067   2.465311   0.000000
    20  H    3.855967   2.491984   4.193536   2.826595   0.000000
    21  H    2.824153   3.582190   2.551749   2.531176   4.230103
    22  H    5.117878   5.053045   5.076386   2.953171   3.755870
    23  H    4.661557   4.577736   5.381691   3.391011   2.655148
    24  H    4.390902   5.616639   6.097159   4.746504   4.319766
    25  H    4.601267   5.855192   5.012868   4.236091   5.671626
    26  O    5.254281   6.616207   5.946649   4.979854   6.149242
    27  H    5.033659   6.279892   5.961446   4.711614   5.480648
    28  H    6.230620   7.373081   6.551578   5.441913   6.840874
    29  O    7.558994   8.493572   7.530517   6.310147   7.902377
    30  H    7.708152   8.398332   7.257197   6.066299   7.944240
    31  C    8.509386   9.717165   8.659970   7.655405   9.223978
    32  H    8.261671   9.617880   8.390712   7.697033   9.398770
    33  C    9.855653  10.837707   9.683304   8.576362  10.297277
    34  H   10.601406  11.738731  10.525991   9.552986  11.270828
    35  H   10.261096  11.118661  10.127495   8.780386  10.342644
    36  C    8.664199  10.122994   9.342575   8.265058   9.416640
    37  H    7.792208   9.424786   8.753965   7.775350   8.756225
    38  H    9.062308  10.356493   9.733800   8.408200   9.403528
    39  H    9.449539  11.048574  10.207090   9.256013  10.416853
    40  C    9.935169  10.627000   9.251466   8.236804  10.287223
    41  H   10.963418  11.546131  10.148563   9.082349  11.165061
    42  H    9.349766   9.826202   8.505227   7.345396   9.427419
    43  H    9.730568  10.529582   8.990991   8.258736  10.434787
                   21         22         23         24         25
    21  H    0.000000
    22  H    3.453215   0.000000
    23  H    4.062696   1.780846   0.000000
    24  H    4.044027   2.844252   2.306483   0.000000
    25  H    2.505928   3.111940   4.184640   3.282300   0.000000
    26  O    3.426457   3.283333   4.299521   3.065441   0.981060
    27  H    3.510706   2.644140   3.420868   2.124192   1.558850
    28  H    4.129878   3.563335   4.852244   3.860444   1.693999
    29  O    5.262182   4.350209   5.821064   5.060043   2.978060
    30  H    5.187503   4.412576   6.042992   5.589654   3.202544
    31  C    6.335672   5.747782   7.119121   6.049710   3.955912
    32  H    6.104897   6.135172   7.497817   6.333769   3.845474
    33  C    7.510468   6.671656   8.162644   7.336746   5.258470
    34  H    8.328024   7.689524   9.136165   8.150873   6.047596
    35  H    7.954038   6.624364   8.067778   7.355686   5.683928
    36  C    6.869873   6.049805   7.133321   5.717281   4.366548
    37  H    6.225985   5.625358   6.541900   4.907954   3.745276
    38  H    7.286193   5.934709   6.966701   5.690788   4.807793
    39  H    7.730546   7.106648   8.156277   6.625398   5.246445
    40  C    7.351092   6.735017   8.392416   7.895338   5.432748
    41  H    8.340769   7.578168   9.254115   8.853330   6.476353
    42  H    6.697840   5.880649   7.587885   7.328470   4.930956
    43  H    7.150034   7.052900   8.706820   8.118832   5.353866
                   26         27         28         29         30
    26  O    0.000000
    27  H    1.021641   0.000000
    28  H    1.066236   1.743493   0.000000
    29  O    2.461875   3.019343   1.396027   0.000000
    30  H    2.964108   3.555471   1.966580   0.967548   0.000000
    31  C    3.352007   4.031108   2.419818   1.456362   2.003414
    32  H    3.404018   4.269291   2.645825   2.069378   2.397525
    33  C    4.730137   5.343729   3.712058   2.419442   2.523664
    34  H    5.498925   6.166500   4.545151   3.369518   3.525573
    35  H    5.073889   5.506955   4.041987   2.714199   2.893613
    36  C    3.521534   3.983791   2.845085   2.379000   3.234772
    37  H    2.851320   3.280413   2.470798   2.579547   3.503612
    38  H    3.911370   4.141357   3.202438   2.622999   3.477223
    39  H    4.433517   4.949119   3.815795   3.316165   4.077593
    40  C    5.160283   5.838039   4.140228   2.857641   2.393203
    41  H    6.197137   6.831528   5.161712   3.834169   3.365671
    42  H    4.743351   5.331053   3.732576   2.500131   1.788341
    43  H    5.198087   6.006752   4.274060   3.199374   2.700586
                   31         32         33         34         35
    31  C    0.000000
    32  H    1.095301   0.000000
    33  C    1.514741   2.153710   0.000000
    34  H    2.151120   2.472391   1.091360   0.000000
    35  H    2.155629   3.063318   1.093459   1.776948   0.000000
    36  C    1.519853   2.152864   2.544507   2.854785   2.758034
    37  H    2.130496   2.458326   3.454293   3.816611   3.728581
    38  H    2.130496   3.034329   2.763161   3.193818   2.536147
    39  H    2.130496   2.476546   2.803595   2.687606   3.103342
    40  C    2.512638   2.769758   1.540000   2.140858   2.158772
    41  H    3.434765   3.739761   2.148263   2.449076   2.462378
    42  H    2.740191   3.113464   2.148263   3.026712   2.482846
    43  H    2.740192   2.554430   2.148263   2.455664   3.040200
                   36         37         38         39         40
    36  C    0.000000
    37  H    1.070000   0.000000
    38  H    1.070000   1.747303   0.000000
    39  H    1.070000   1.747303   1.747303   0.000000
    40  C    3.891886   4.637974   4.152997   4.238156   0.000000
    41  H    4.678630   5.526090   4.818183   4.907346   1.070000
    42  H    4.133584   4.749353   4.281269   4.709334   1.070000
    43  H    4.191929   4.814164   4.686064   4.441544   1.070000
                   41         42         43
    41  H    0.000000
    42  H    1.747303   0.000000
    43  H    1.747303   1.747303   0.000000
 Stoichiometry    C10H25O8(1+)
 Framework group  C1[X(C10H25O8)]
 Deg. of freedom   123
 Full point group                 C1      NOp   1
 Largest Abelian subgroup         C1      NOp   1
 Largest concise Abelian subgroup C1      NOp   1
                         Standard orientation:                         
 ---------------------------------------------------------------------
 Center     Atomic      Atomic             Coordinates (Angstroms)
 Number     Number       Type             X           Y           Z
 ---------------------------------------------------------------------
      1          6           0        3.407604   -0.043615   -1.082313
      2          6           0        3.428246    1.293460   -0.319849
      3          6           0        2.527491    1.028416    0.898399
      4          6           0        1.509006    0.048743    0.281869
      5          8           0        2.286762   -0.780936   -0.551622
      6          6           0        4.656320   -0.880591   -0.935651
      7          6           0        0.777337   -0.829429    1.279547
      8          8           0        4.903405   -1.088147    0.451140
      9          8           0        2.835885    2.269096   -1.173302
     10          8           0        0.545049    0.758295   -0.477914
     11          8           0        3.227598    0.474840    1.984359
     12          8           0       -0.055025   -1.790501    0.624240
     13          1           0        4.511055   -1.838676   -1.443249
     14          1           0        5.490321   -0.350791   -1.405303
     15          1           0        5.766645   -1.498602    0.570880
     16          1           0        3.240391    0.152897   -2.144856
     17          1           0        4.435376    1.590666   -0.019420
     18          1           0        2.884783    3.130488   -0.739922
     19          1           0        2.035794    1.938403    1.243991
     20          1           0        3.869226   -0.175150    1.645319
     21          1           0        0.995870    1.435972   -1.008335
     22          1           0        0.121973   -0.213940    1.896625
     23          1           0        1.499484   -1.342489    1.912628
     24          1           0        0.498145   -2.412099    0.131303
     25          1           0       -1.187298    0.211043   -0.894319
     26          8           0       -1.777309   -0.561010   -0.759038
     27          1           0       -1.200252   -1.175277   -0.181603
     28          1           0       -2.691698   -0.278702   -0.288876
     29          8           0       -3.913374    0.060895    0.295138
     30          1           0       -3.918823    0.982808    0.588731
     31          6           0       -5.101100   -0.210836   -0.502645
     32          1           0       -4.990420    0.323734   -1.452207
     33          6           0       -6.321120    0.292241    0.240930
     34          1           0       -7.212759    0.180002   -0.378303
     35          1           0       -6.461965   -0.270108    1.168065
     36          6           0       -5.106241   -1.709658   -0.754552
     37          1           0       -4.195685   -1.992879   -1.239911
     38          1           0       -5.189466   -2.227768    0.177937
     39          1           0       -5.937193   -1.963523   -1.379030
     40          6           0       -6.172856    1.786978    0.580604
     41          1           0       -7.043634    2.121741    1.104607
     42          1           0       -5.309443    1.928848    1.196470
     43          1           0       -6.062475    2.348897   -0.323256
 ---------------------------------------------------------------------
 Rotational constants (GHZ):           0.8645693           0.1269903           0.1223926
 Standard basis: 6-311++G(d,p) (5D, 7F)
 There are   589 symmetry adapted cartesian basis functions of A   symmetry.
 There are   571 symmetry adapted basis functions of A   symmetry.
   571 basis functions,   873 primitive gaussians,   589 cartesian basis functions
    74 alpha electrons       74 beta electrons
       nuclear repulsion energy      1542.8413207707 Hartrees.
 NAtoms=   43 NActive=   43 NUniq=   43 SFac= 1.00D+00 NAtFMM=   60 NAOKFM=F Big=F
 Integral buffers will be    131072 words long.
 Raffenetti 2 integral format.
 Two-electron integral symmetry is turned on.
 ------------------------------------------------------------------------------
 Polarizable Continuum Model (PCM)
 =================================
 Model                : PCM.
 Atomic radii         : SMD-Coulomb.
 Polarization charges : Total charges.
 Charge compensation  : None.
 Solution method      : On-the-fly selection.
 Cavity type          : VdW (van der Waals Surface) (Alpha=1.000).
 Cavity algorithm     : GePol (No added spheres)
                        Default sphere list used, NSphG=   43.
                        Lebedev-Laikov grids with approx.  5.0 points / Ang**2.
                        Smoothing algorithm: York/Karplus (Gamma=1.0000).
                        Polarization charges: spherical gaussians, with
                                              point-specific exponents (IZeta= 3).
                        Self-potential: point-specific (ISelfS= 7).
                        Self-field    : sphere-specific E.n sum rule (ISelfD= 2).
 1st derivatives      : Analytical E(r).r(x)/FMM algorithm (CHGder, D1EAlg=3).
                        Cavity 1st derivative terms included.
 Solvent              : 2-Butanol, Eps=  15.944000 Eps(inf)=   1.953845
 ------------------------------------------------------------------------------
 ------------------------------------------------------------------------------
 Atomic radii for non-electrostatic terms: SMD-CDS.
 ------------------------------------------------------------------------------
 Nuclear repulsion after PCM non-electrostatic terms =     1542.8412727756 Hartrees.
 One-electron integrals computed using PRISM.
 NBasis=   571 RedAO= T EigKep=  1.99D-06  NBF=   571
 NBsUse=   571 1.00D-06 EigRej= -1.00D+00 NBFU=   571
 ExpMin= 3.60D-02 ExpMax= 8.59D+03 ExpMxC= 1.30D+03 IAcc=3 IRadAn=         5 AccDes= 0.00D+00
 Harris functional with IExCor= 1009 and IRadAn=       5 diagonalized for initial guess.
 HarFok:  IExCor= 1009 AccDes= 0.00D+00 IRadAn=         5 IDoV= 1 UseB2=F ITyADJ=14
 ICtDFT=  3500011 ScaDFX=  1.000000  1.000000  1.000000  1.000000
 FoFCou: FMM=F IPFlag=           0 FMFlag=      100000 FMFlg1=           0
         NFxFlg=           0 DoJE=T BraDBF=F KetDBF=T FulRan=T
         wScrn=  0.000000 ICntrl=       500 IOpCl=  0 I1Cent=   200000004 NGrid=           0
         NMat0=    1 NMatS0=      1 NMatT0=    0 NMatD0=    1 NMtDS0=    0 NMtDT0=    0
 Petite list used in FoFCou.
 Requested convergence on RMS density matrix=1.00D-08 within 400 cycles.
 Requested convergence on MAX density matrix=1.00D-06.
 Requested convergence on             energy=1.00D-06.
 No special actions if energy rises.
 Inv3:  Mode=1 IEnd=    21902412.
 Iteration    1 A*A^-1 deviation from unit magnitude is 3.22D-15 for    239.
 Iteration    1 A*A^-1 deviation from orthogonality  is 1.84D-15 for   2108    774.
 Iteration    1 A^-1*A deviation from unit magnitude is 3.22D-15 for    239.
 Iteration    1 A^-1*A deviation from orthogonality  is 2.37D-15 for   1087      6.
 Error on total polarization charges =  0.05718
 SCF Done:  E(RM062X) =  -997.692341809     A.U. after   13 cycles
            NFock= 13  Conv=0.27D-08     -V/T= 2.0035
 SMD-CDS (non-electrostatic) energy       (kcal/mol) =      -0.03
 (included in total energy above)
 QCSCF skips out because SCF is already converged.

 **********************************************************************

            Population analysis using the SCF Density.

 **********************************************************************

 Orbital symmetries:
       Occupied  (A) (A) (A) (A) (A) (A) (A) (A) (A) (A) (A) (A)
                 (A) (A) (A) (A) (A) (A) (A) (A) (A) (A) (A) (A)
                 (A) (A) (A) (A) (A) (A) (A) (A) (A) (A) (A) (A)
                 (A) (A) (A) (A) (A) (A) (A) (A) (A) (A) (A) (A)
                 (A) (A) (A) (A) (A) (A) (A) (A) (A) (A) (A) (A)
                 (A) (A) (A) (A) (A) (A) (A) (A) (A) (A) (A) (A)
                 (A) (A)
       Virtual   (A) (A) (A) (A) (A) (A) (A) (A) (A) (A) (A) (A)
                 (A) (A) (A) (A) (A) (A) (A) (A) (A) (A) (A) (A)
                 (A) (A) (A) (A) (A) (A) (A) (A) (A) (A) (A) (A)
                 (A) (A) (A) (A) (A) (A) (A) (A) (A) (A) (A) (A)
                 (A) (A) (A) (A) (A) (A) (A) (A) (A) (A) (A) (A)
                 (A) (A) (A) (A) (A) (A) (A) (A) (A) (A) (A) (A)
                 (A) (A) (A) (A) (A) (A) (A) (A) (A) (A) (A) (A)
                 (A) (A) (A) (A) (A) (A) (A) (A) (A) (A) (A) (A)
                 (A) (A) (A) (A) (A) (A) (A) (A) (A) (A) (A) (A)
                 (A) (A) (A) (A) (A) (A) (A) (A) (A) (A) (A) (A)
                 (A) (A) (A) (A) (A) (A) (A) (A) (A) (A) (A) (A)
                 (A) (A) (A) (A) (A) (A) (A) (A) (A) (A) (A) (A)
                 (A) (A) (A) (A) (A) (A) (A) (A) (A) (A) (A) (A)
                 (A) (A) (A) (A) (A) (A) (A) (A) (A) (A) (A) (A)
                 (A) (A) (A) (A) (A) (A) (A) (A) (A) (A) (A) (A)
                 (A) (A) (A) (A) (A) (A) (A) (A) (A) (A) (A) (A)
                 (A) (A) (A) (A) (A) (A) (A) (A) (A) (A) (A) (A)
                 (A) (A) (A) (A) (A) (A) (A) (A) (A) (A) (A) (A)
                 (A) (A) (A) (A) (A) (A) (A) (A) (A) (A) (A) (A)
                 (A) (A) (A) (A) (A) (A) (A) (A) (A) (A) (A) (A)
                 (A) (A) (A) (A) (A) (A) (A) (A) (A) (A) (A) (A)
                 (A) (A) (A) (A) (A) (A) (A) (A) (A) (A) (A) (A)
                 (A) (A) (A) (A) (A) (A) (A) (A) (A) (A) (A) (A)
                 (A) (A) (A) (A) (A) (A) (A) (A) (A) (A) (A) (A)
                 (A) (A) (A) (A) (A) (A) (A) (A) (A) (A) (A) (A)
                 (A) (A) (A) (A) (A) (A) (A) (A) (A) (A) (A) (A)
                 (A) (A) (A) (A) (A) (A) (A) (A) (A) (A) (A) (A)
                 (A) (A) (A) (A) (A) (A) (A) (A) (A) (A) (A) (A)
                 (A) (A) (A) (A) (A) (A) (A) (A) (A) (A) (A) (A)
                 (A) (A) (A) (A) (A) (A) (A) (A) (A) (A) (A) (A)
                 (A) (A) (A) (A) (A) (A) (A) (A) (A) (A) (A) (A)
                 (A) (A) (A) (A) (A) (A) (A) (A) (A) (A) (A) (A)
                 (A) (A) (A) (A) (A) (A) (A) (A) (A) (A) (A) (A)
                 (A) (A) (A) (A) (A) (A) (A) (A) (A) (A) (A) (A)
                 (A) (A) (A) (A) (A) (A) (A) (A) (A) (A) (A) (A)
                 (A) (A) (A) (A) (A) (A) (A) (A) (A) (A) (A) (A)
                 (A) (A) (A) (A) (A) (A) (A) (A) (A) (A) (A) (A)
                 (A) (A) (A) (A) (A) (A) (A) (A) (A) (A) (A) (A)
                 (A) (A) (A) (A) (A) (A) (A) (A) (A) (A) (A) (A)
                 (A) (A) (A) (A) (A) (A) (A) (A) (A) (A) (A) (A)
                 (A) (A) (A) (A) (A) (A) (A) (A) (A) (A) (A) (A)
                 (A) (A) (A) (A) (A)
 The electronic state is 1-A.
 Alpha  occ. eigenvalues --  -19.69344 -19.66851 -19.66746 -19.65176 -19.65126
 Alpha  occ. eigenvalues --  -19.64925 -19.64415 -19.63227 -10.66255 -10.60966
 Alpha  occ. eigenvalues --  -10.60656 -10.60617 -10.60441 -10.60289 -10.59523
 Alpha  occ. eigenvalues --  -10.53551 -10.52174 -10.52152  -1.23486  -1.22287
 Alpha  occ. eigenvalues --   -1.18743  -1.17954  -1.17075  -1.16925  -1.15677
 Alpha  occ. eigenvalues --   -1.14738  -0.90116  -0.89699  -0.87733  -0.84003
 Alpha  occ. eigenvalues --   -0.82227  -0.75682  -0.73642  -0.71411  -0.69455
 Alpha  occ. eigenvalues --   -0.68523  -0.68062  -0.66791  -0.65235  -0.64146
 Alpha  occ. eigenvalues --   -0.62351  -0.61585  -0.60628  -0.59541  -0.57256
 Alpha  occ. eigenvalues --   -0.55602  -0.55058  -0.54354  -0.52800  -0.52221
 Alpha  occ. eigenvalues --   -0.51540  -0.50943  -0.50636  -0.50176  -0.49287
 Alpha  occ. eigenvalues --   -0.48690  -0.47491  -0.47247  -0.45988  -0.45650
 Alpha  occ. eigenvalues --   -0.45249  -0.44032  -0.43288  -0.43085  -0.42695
 Alpha  occ. eigenvalues --   -0.41393  -0.40713  -0.39516  -0.39272  -0.38762
 Alpha  occ. eigenvalues --   -0.37934  -0.37454  -0.36381  -0.33918
 Alpha virt. eigenvalues --   -0.01081  -0.00055   0.00312   0.00562   0.01065
 Alpha virt. eigenvalues --    0.01347   0.01653   0.02386   0.02730   0.03011
 Alpha virt. eigenvalues --    0.03257   0.03518   0.04132   0.04460   0.04680
 Alpha virt. eigenvalues --    0.04955   0.05397   0.06088   0.06592   0.06976
 Alpha virt. eigenvalues --    0.07332   0.07759   0.07914   0.08398   0.08627
 Alpha virt. eigenvalues --    0.09081   0.09170   0.09945   0.10390   0.10431
 Alpha virt. eigenvalues --    0.10828   0.11247   0.11800   0.12067   0.12155
 Alpha virt. eigenvalues --    0.12528   0.12921   0.13172   0.13404   0.13704
 Alpha virt. eigenvalues --    0.13940   0.14190   0.14573   0.14745   0.14946
 Alpha virt. eigenvalues --    0.15093   0.15213   0.15493   0.15674   0.16001
 Alpha virt. eigenvalues --    0.16233   0.16564   0.16664   0.17063   0.17302
 Alpha virt. eigenvalues --    0.17628   0.18050   0.18380   0.18861   0.19277
 Alpha virt. eigenvalues --    0.19414   0.19895   0.20251   0.20470   0.20732
 Alpha virt. eigenvalues --    0.20876   0.21356   0.21782   0.22092   0.22272
 Alpha virt. eigenvalues --    0.22944   0.23208   0.23429   0.24117   0.24348
 Alpha virt. eigenvalues --    0.24680   0.24948   0.25250   0.25542   0.25722
 Alpha virt. eigenvalues --    0.26451   0.26623   0.26778   0.27324   0.27882
 Alpha virt. eigenvalues --    0.28307   0.28504   0.28748   0.28949   0.29432
 Alpha virt. eigenvalues --    0.29520   0.29698   0.29906   0.30782   0.31034
 Alpha virt. eigenvalues --    0.31247   0.31573   0.32078   0.32515   0.32868
 Alpha virt. eigenvalues --    0.33149   0.33319   0.33479   0.34203   0.34626
 Alpha virt. eigenvalues --    0.34810   0.34900   0.35091   0.35523   0.35638
 Alpha virt. eigenvalues --    0.36092   0.36468   0.36914   0.36991   0.37156
 Alpha virt. eigenvalues --    0.37731   0.38171   0.38609   0.38723   0.39127
 Alpha virt. eigenvalues --    0.39879   0.40179   0.40683   0.40967   0.41435
 Alpha virt. eigenvalues --    0.41685   0.42615   0.42838   0.43873   0.45182
 Alpha virt. eigenvalues --    0.45570   0.46695   0.47436   0.48212   0.48817
 Alpha virt. eigenvalues --    0.49520   0.49959   0.50340   0.51500   0.51816
 Alpha virt. eigenvalues --    0.52700   0.54245   0.56071   0.56989   0.57527
 Alpha virt. eigenvalues --    0.58191   0.58716   0.59574   0.60714   0.61215
 Alpha virt. eigenvalues --    0.62094   0.62666   0.63213   0.63346   0.64016
 Alpha virt. eigenvalues --    0.64605   0.65232   0.66840   0.67152   0.67261
 Alpha virt. eigenvalues --    0.68346   0.68751   0.69388   0.70249   0.70483
 Alpha virt. eigenvalues --    0.70868   0.71155   0.71476   0.72161   0.73020
 Alpha virt. eigenvalues --    0.73503   0.73873   0.74266   0.74945   0.75526
 Alpha virt. eigenvalues --    0.75708   0.76138   0.77009   0.78024   0.78417
 Alpha virt. eigenvalues --    0.78812   0.79985   0.80150   0.81104   0.82023
 Alpha virt. eigenvalues --    0.82574   0.82946   0.83289   0.84216   0.84955
 Alpha virt. eigenvalues --    0.85561   0.88381   0.88887   0.92628   0.96741
 Alpha virt. eigenvalues --    0.97280   0.98589   0.99708   1.00732   1.03304
 Alpha virt. eigenvalues --    1.05100   1.06279   1.07192   1.08022   1.08528
 Alpha virt. eigenvalues --    1.09878   1.10600   1.11347   1.12792   1.14011
 Alpha virt. eigenvalues --    1.14399   1.17209   1.18109   1.18453   1.19140
 Alpha virt. eigenvalues --    1.20442   1.21037   1.21777   1.22659   1.23311
 Alpha virt. eigenvalues --    1.24866   1.25343   1.25979   1.27668   1.28404
 Alpha virt. eigenvalues --    1.28703   1.29290   1.30376   1.31365   1.31896
 Alpha virt. eigenvalues --    1.33382   1.34290   1.35572   1.37662   1.37785
 Alpha virt. eigenvalues --    1.39621   1.40681   1.41467   1.42574   1.42740
 Alpha virt. eigenvalues --    1.43937   1.44463   1.46681   1.47766   1.48537
 Alpha virt. eigenvalues --    1.50801   1.52019   1.52825   1.53487   1.54322
 Alpha virt. eigenvalues --    1.54905   1.55724   1.56633   1.57396   1.58158
 Alpha virt. eigenvalues --    1.58817   1.59579   1.60343   1.60866   1.61554
 Alpha virt. eigenvalues --    1.61750   1.62088   1.62636   1.63364   1.63926
 Alpha virt. eigenvalues --    1.64617   1.64763   1.65673   1.65983   1.66862
 Alpha virt. eigenvalues --    1.67913   1.69030   1.69622   1.70501   1.70970
 Alpha virt. eigenvalues --    1.72185   1.72447   1.72507   1.73489   1.73919
 Alpha virt. eigenvalues --    1.74182   1.76716   1.77560   1.78141   1.79000
 Alpha virt. eigenvalues --    1.79903   1.80422   1.80532   1.82268   1.83135
 Alpha virt. eigenvalues --    1.83379   1.84189   1.85045   1.87633   1.88038
 Alpha virt. eigenvalues --    1.89054   1.89152   1.90129   1.92219   1.92861
 Alpha virt. eigenvalues --    1.94487   1.95586   1.96031   1.96579   1.98470
 Alpha virt. eigenvalues --    1.99027   1.99895   2.01167   2.01525   2.05633
 Alpha virt. eigenvalues --    2.06054   2.07399   2.07940   2.08363   2.09677
 Alpha virt. eigenvalues --    2.09857   2.12195   2.13113   2.13416   2.13950
 Alpha virt. eigenvalues --    2.14980   2.16067   2.18051   2.19790   2.20320
 Alpha virt. eigenvalues --    2.23038   2.23123   2.23581   2.25096   2.26041
 Alpha virt. eigenvalues --    2.26742   2.28356   2.28607   2.29898   2.33880
 Alpha virt. eigenvalues --    2.34339   2.36279   2.37067   2.38042   2.43428
 Alpha virt. eigenvalues --    2.45168   2.45638   2.46838   2.49373   2.54631
 Alpha virt. eigenvalues --    2.55966   2.56161   2.56741   2.57679   2.57972
 Alpha virt. eigenvalues --    2.58255   2.59920   2.60744   2.61324   2.61621
 Alpha virt. eigenvalues --    2.63628   2.64426   2.65732   2.66684   2.67373
 Alpha virt. eigenvalues --    2.67615   2.68732   2.69002   2.69948   2.71496
 Alpha virt. eigenvalues --    2.72609   2.74198   2.74992   2.76119   2.76614
 Alpha virt. eigenvalues --    2.78813   2.80087   2.80359   2.82279   2.84473
 Alpha virt. eigenvalues --    2.85498   2.86814   2.88903   2.89689   2.92299
 Alpha virt. eigenvalues --    2.93289   2.94509   2.95638   2.96045   2.98213
 Alpha virt. eigenvalues --    2.98953   2.99730   3.02268   3.03484   3.05164
 Alpha virt. eigenvalues --    3.06009   3.07125   3.08738   3.09089   3.11233
 Alpha virt. eigenvalues --    3.14674   3.15388   3.17762   3.18183   3.20235
 Alpha virt. eigenvalues --    3.20643   3.22604   3.23345   3.25395   3.25727
 Alpha virt. eigenvalues --    3.26568   3.27705   3.28290   3.29598   3.30768
 Alpha virt. eigenvalues --    3.31845   3.34171   3.35172   3.36183   3.37174
 Alpha virt. eigenvalues --    3.37857   3.39270   3.41207   3.42737   3.44187
 Alpha virt. eigenvalues --    3.48135   3.48965   3.54674   3.63738   3.64953
 Alpha virt. eigenvalues --    3.84584   3.85710   3.86287   3.86847   3.89738
 Alpha virt. eigenvalues --    3.91024   3.91133   3.91711   3.92539   3.93399
 Alpha virt. eigenvalues --    3.93636   3.93922   3.96650   3.99494   4.00017
 Alpha virt. eigenvalues --    4.00214   4.02285   4.02974   4.06860   4.07024
 Alpha virt. eigenvalues --    4.11442   4.16862   4.17882   4.22407   4.25578
 Alpha virt. eigenvalues --    4.26369   4.28533   4.34538   4.39832   4.43567
 Alpha virt. eigenvalues --    5.18068   5.18318   5.20496   5.22926   5.24726
 Alpha virt. eigenvalues --    5.26707   5.29161   5.32832   5.46880   5.49278
 Alpha virt. eigenvalues --    5.53184   5.53751   5.56997   5.58210   5.62210
 Alpha virt. eigenvalues --    5.71335   5.71751   5.72006   5.75932   5.76933
 Alpha virt. eigenvalues --    5.80403   5.81878   5.93113   5.95723  23.79972
 Alpha virt. eigenvalues --   23.87602  23.88076  23.91481  23.93903  23.95326
 Alpha virt. eigenvalues --   23.97835  23.99949  24.10771  24.12363  49.97410
 Alpha virt. eigenvalues --   50.01956  50.02484  50.03666  50.06163  50.08199
 Alpha virt. eigenvalues --   50.11253  50.13645
          Condensed to atoms (all electrons):
               1          2          3          4          5          6
     1  C   10.311501  -3.317197   2.277861  -3.142015   0.340655  -1.224541
     2  C   -3.317197  10.723286  -3.818702   2.943485  -0.227509   0.413297
     3  C    2.277861  -3.818702  12.470438  -5.447684   0.199070   0.054901
     4  C   -3.142015   2.943485  -5.447684  15.608960  -0.079671   0.241976
     5  O    0.340655  -0.227509   0.199070  -0.079671   8.156967  -0.107897
     6  C   -1.224541   0.413297   0.054901   0.241976  -0.107897   6.290687
     7  C    0.110662  -0.452283  -0.211447  -2.993686  -0.201396  -0.035185
     8  O    0.011799  -0.103960   0.135084  -0.112068   0.017198   0.123003
     9  O   -0.223368   0.452595  -0.114746  -0.148481   0.008584   0.012477
    10  O    0.031711   0.001995   0.001866  -0.050185  -0.025682   0.003978
    11  O    0.015650  -0.162183   0.493062  -0.233748   0.005283  -0.004077
    12  O   -0.006035  -0.023725   0.049005  -0.119583  -0.013285  -0.005538
    13  H   -0.083490  -0.005873   0.023837  -0.026002  -0.020302   0.456744
    14  H   -0.014584  -0.011799   0.007936  -0.021043   0.020347   0.429180
    15  H   -0.066465   0.017874  -0.002491   0.007035   0.002625   0.067897
    16  H    0.478272  -0.146668   0.039977  -0.017087  -0.032467  -0.071143
    17  H    0.054125   0.299172   0.058839  -0.136537  -0.004540  -0.045054
    18  H   -0.066045   0.106213  -0.102486   0.094694  -0.000951  -0.000255
    19  H    0.043010  -0.094312   0.460529  -0.096459   0.024346   0.013381
    20  H    0.077309   0.002680  -0.030852   0.043412   0.003640  -0.031575
    21  H    0.007525  -0.024600   0.016576   0.039644  -0.009383  -0.009038
    22  H   -0.012720  -0.013534  -0.013477  -0.038313   0.016711   0.006285
    23  H    0.030381  -0.014938  -0.038574  -0.076872  -0.023358  -0.021550
    24  H    0.006201  -0.001879  -0.008046   0.022739   0.015309  -0.000193
    25  H   -0.019247   0.019523  -0.072291   0.000912  -0.007778   0.001139
    26  O    0.001480   0.005726  -0.030536   0.175257  -0.001181  -0.000726
    27  H   -0.001650  -0.003219  -0.028807  -0.238034  -0.004105   0.001324
    28  H    0.003095  -0.008438   0.081909   0.050602   0.000288   0.000093
    29  O   -0.000355   0.000461  -0.001301   0.010532   0.000016  -0.000004
    30  H   -0.000728   0.002024  -0.009285  -0.006745  -0.000136  -0.000105
    31  C    0.000646  -0.000476  -0.005438  -0.008686   0.000427   0.000059
    32  H    0.000024  -0.000131   0.000082  -0.000251   0.000009   0.000002
    33  C   -0.000021   0.000131  -0.000057  -0.000411  -0.000004  -0.000012
    34  H    0.000001   0.000002   0.000014   0.000062   0.000000   0.000000
    35  H    0.000001  -0.000002  -0.000076   0.000002   0.000000   0.000000
    36  C   -0.000422   0.000103  -0.000547  -0.008558  -0.000137  -0.000020
    37  H    0.000164   0.000084   0.000166   0.003496   0.000005  -0.000055
    38  H    0.000027   0.000011  -0.000010  -0.000336   0.000028   0.000005
    39  H   -0.000016   0.000006  -0.000054  -0.000287  -0.000007  -0.000000
    40  C    0.000014  -0.000049   0.000443   0.000965   0.000003   0.000003
    41  H    0.000001  -0.000001   0.000022   0.000038   0.000000   0.000000
    42  H    0.000026  -0.000102   0.000925   0.000475   0.000000   0.000002
    43  H    0.000002   0.000013  -0.000158   0.000027   0.000001   0.000000
               7          8          9         10         11         12
     1  C    0.110662   0.011799  -0.223368   0.031711   0.015650  -0.006035
     2  C   -0.452283  -0.103960   0.452595   0.001995  -0.162183  -0.023725
     3  C   -0.211447   0.135084  -0.114746   0.001866   0.493062   0.049005
     4  C   -2.993686  -0.112068  -0.148481  -0.050185  -0.233748  -0.119583
     5  O   -0.201396   0.017198   0.008584  -0.025682   0.005283  -0.013285
     6  C   -0.035185   0.123003   0.012477   0.003978  -0.004077  -0.005538
     7  C    9.650759  -0.004088   0.043240  -0.180881  -0.044158   0.060524
     8  O   -0.004088   8.273494   0.004462   0.002882  -0.012822  -0.001118
     9  O    0.043240   0.004462   7.998001   0.021156   0.022032   0.000006
    10  O   -0.180881   0.002882   0.021156   8.201250   0.026665   0.026157
    11  O   -0.044158  -0.012822   0.022032   0.026665   7.891316   0.000704
    12  O    0.060524  -0.001118   0.000006   0.026157   0.000704   8.172125
    13  H   -0.005687  -0.051744  -0.001541   0.002027   0.002228   0.000893
    14  H    0.005809  -0.070234  -0.001834  -0.001484  -0.000909  -0.000517
    15  H   -0.000660   0.209166  -0.000027  -0.000072   0.001304  -0.000004
    16  H    0.003883   0.010231  -0.005119   0.001161  -0.001769  -0.001079
    17  H    0.003423   0.006995  -0.001869   0.003515  -0.005345   0.000501
    18  H    0.015583   0.000158   0.281131  -0.008384   0.002901  -0.000114
    19  H   -0.098037   0.000395  -0.026410   0.014683  -0.060745  -0.004737
    20  H   -0.043505  -0.033105  -0.001454  -0.001899   0.288555  -0.000876
    21  H   -0.004614   0.000610  -0.011541   0.238915   0.000029   0.007160
    22  H    0.423284   0.001532  -0.000682  -0.003905  -0.011690  -0.065025
    23  H    0.439196  -0.002072   0.000814   0.012520   0.028305  -0.000050
    24  H   -0.017111   0.000141  -0.000322  -0.006822  -0.000337   0.262725
    25  H    0.052452  -0.000227  -0.000445  -0.001406  -0.001620  -0.001770
    26  O   -0.136582  -0.000022   0.001143  -0.004845  -0.000252  -0.028120
    27  H    0.251731  -0.000214  -0.000288   0.009423  -0.000853   0.008715
    28  H   -0.075797   0.000056  -0.000407   0.005849   0.001184   0.036502
    29  O   -0.006092   0.000000   0.000007  -0.002814  -0.000000  -0.001129
    30  H    0.011006  -0.000006   0.000057  -0.001680  -0.000027  -0.001592
    31  C    0.006591   0.000001  -0.000009  -0.001310   0.000003  -0.005486
    32  H    0.000032   0.000000   0.000004   0.000176  -0.000001  -0.000106
    33  C    0.001574  -0.000000   0.000003  -0.000823   0.000002   0.000203
    34  H   -0.000104  -0.000000   0.000000   0.000019  -0.000000   0.000018
    35  H    0.000024   0.000000  -0.000000  -0.000040   0.000000  -0.000091
    36  C    0.005730  -0.000000   0.000004   0.001947  -0.000017   0.002166
    37  H   -0.000746  -0.000000   0.000009  -0.000477  -0.000001  -0.003567
    38  H    0.000497   0.000000   0.000000  -0.000015   0.000000  -0.000043
    39  H    0.000319  -0.000000  -0.000000   0.000025  -0.000000  -0.000123
    40  C   -0.000551   0.000000  -0.000002   0.000010   0.000001  -0.000117
    41  H    0.000018   0.000000   0.000000  -0.000013   0.000000  -0.000009
    42  H   -0.000200   0.000000   0.000001   0.000084   0.000001   0.000105
    43  H   -0.000066  -0.000000  -0.000000  -0.000046   0.000000  -0.000001
              13         14         15         16         17         18
     1  C   -0.083490  -0.014584  -0.066465   0.478272   0.054125  -0.066045
     2  C   -0.005873  -0.011799   0.017874  -0.146668   0.299172   0.106213
     3  C    0.023837   0.007936  -0.002491   0.039977   0.058839  -0.102486
     4  C   -0.026002  -0.021043   0.007035  -0.017087  -0.136537   0.094694
     5  O   -0.020302   0.020347   0.002625  -0.032467  -0.004540  -0.000951
     6  C    0.456744   0.429180   0.067897  -0.071143  -0.045054  -0.000255
     7  C   -0.005687   0.005809  -0.000660   0.003883   0.003423   0.015583
     8  O   -0.051744  -0.070234   0.209166   0.010231   0.006995   0.000158
     9  O   -0.001541  -0.001834  -0.000027  -0.005119  -0.001869   0.281131
    10  O    0.002027  -0.001484  -0.000072   0.001161   0.003515  -0.008384
    11  O    0.002228  -0.000909   0.001304  -0.001769  -0.005345   0.002901
    12  O    0.000893  -0.000517  -0.000004  -0.001079   0.000501  -0.000114
    13  H    0.544466  -0.053276   0.003252  -0.005440   0.004210  -0.000800
    14  H   -0.053276   0.523322  -0.009412  -0.004656  -0.012127   0.000986
    15  H    0.003252  -0.009412   0.398211  -0.001345  -0.002620  -0.000122
    16  H   -0.005440  -0.004656  -0.001345   0.426853   0.006977  -0.000154
    17  H    0.004210  -0.012127  -0.002620   0.006977   0.475323  -0.022579
    18  H   -0.000800   0.000986  -0.000122  -0.000154  -0.022579   0.386339
    19  H    0.001183  -0.000765   0.000357   0.004254  -0.006049  -0.008242
    20  H   -0.005537   0.003334   0.001408   0.001453  -0.012519   0.001692
    21  H   -0.000396   0.000145  -0.000066   0.007181   0.004498  -0.008853
    22  H    0.000037   0.000348   0.000144  -0.001012  -0.002648   0.000983
    23  H    0.000438  -0.001005  -0.001521   0.001417   0.005045  -0.000691
    24  H   -0.001031   0.000125   0.000076   0.000131  -0.000319   0.000008
    25  H   -0.000387   0.000276   0.000035   0.000809  -0.000065   0.000410
    26  O    0.000030  -0.000023   0.000000  -0.000792  -0.000254   0.000365
    27  H    0.000345   0.000237   0.000001   0.001253  -0.000040   0.000110
    28  H    0.000221  -0.000203  -0.000006  -0.000350   0.000259  -0.000636
    29  O   -0.000004   0.000001  -0.000000   0.000018  -0.000004   0.000013
    30  H   -0.000010   0.000003   0.000000   0.000056   0.000034   0.000070
    31  C   -0.000011   0.000009  -0.000000   0.000076  -0.000021   0.000014
    32  H    0.000001  -0.000000  -0.000000  -0.000011  -0.000006   0.000006
    33  C   -0.000001   0.000000  -0.000000   0.000020   0.000007  -0.000001
    34  H   -0.000000  -0.000000   0.000000  -0.000000   0.000000  -0.000000
    35  H    0.000000   0.000000  -0.000000   0.000000  -0.000000   0.000000
    36  C   -0.000001  -0.000000   0.000000  -0.000030  -0.000004   0.000011
    37  H   -0.000010   0.000000   0.000000   0.000012   0.000001   0.000010
    38  H    0.000001   0.000000  -0.000000  -0.000006   0.000000  -0.000001
    39  H   -0.000001   0.000000   0.000000   0.000004   0.000000   0.000000
    40  C    0.000000   0.000000  -0.000000  -0.000005  -0.000001  -0.000005
    41  H    0.000000   0.000000  -0.000000  -0.000000   0.000000  -0.000000
    42  H    0.000000  -0.000000  -0.000000  -0.000002  -0.000002  -0.000005
    43  H   -0.000000   0.000000   0.000000   0.000001   0.000000   0.000000
              19         20         21         22         23         24
     1  C    0.043010   0.077309   0.007525  -0.012720   0.030381   0.006201
     2  C   -0.094312   0.002680  -0.024600  -0.013534  -0.014938  -0.001879
     3  C    0.460529  -0.030852   0.016576  -0.013477  -0.038574  -0.008046
     4  C   -0.096459   0.043412   0.039644  -0.038313  -0.076872   0.022739
     5  O    0.024346   0.003640  -0.009383   0.016711  -0.023358   0.015309
     6  C    0.013381  -0.031575  -0.009038   0.006285  -0.021550  -0.000193
     7  C   -0.098037  -0.043505  -0.004614   0.423284   0.439196  -0.017111
     8  O    0.000395  -0.033105   0.000610   0.001532  -0.002072   0.000141
     9  O   -0.026410  -0.001454  -0.011541  -0.000682   0.000814  -0.000322
    10  O    0.014683  -0.001899   0.238915  -0.003905   0.012520  -0.006822
    11  O   -0.060745   0.288555   0.000029  -0.011690   0.028305  -0.000337
    12  O   -0.004737  -0.000876   0.007160  -0.065025  -0.000050   0.262725
    13  H    0.001183  -0.005537  -0.000396   0.000037   0.000438  -0.001031
    14  H   -0.000765   0.003334   0.000145   0.000348  -0.001005   0.000125
    15  H    0.000357   0.001408  -0.000066   0.000144  -0.001521   0.000076
    16  H    0.004254   0.001453   0.007181  -0.001012   0.001417   0.000131
    17  H   -0.006049  -0.012519   0.004498  -0.002648   0.005045  -0.000319
    18  H   -0.008242   0.001692  -0.008853   0.000983  -0.000691   0.000008
    19  H    0.482071   0.012543   0.004330   0.002664   0.002511  -0.000093
    20  H    0.012543   0.384720  -0.001023   0.001238  -0.003656   0.000858
    21  H    0.004330  -0.001023   0.371516  -0.001084   0.001327   0.000144
    22  H    0.002664   0.001238  -0.001084   0.435402  -0.032518   0.013633
    23  H    0.002511  -0.003656   0.001327  -0.032518   0.482868  -0.021565
    24  H   -0.000093   0.000858   0.000144   0.013633  -0.021565   0.379320
    25  H    0.004933   0.000147   0.003619   0.005702   0.000737   0.004041
    26  O   -0.004300   0.000587  -0.016173   0.003420  -0.003184   0.002651
    27  H    0.003312  -0.000820  -0.000699  -0.000800   0.008255  -0.013058
    28  H   -0.000483  -0.000351   0.008283  -0.014529  -0.000451  -0.005122
    29  O   -0.000118   0.000020  -0.000016  -0.000481  -0.000278  -0.000186
    30  H   -0.000678   0.000035  -0.000573  -0.001699   0.000619  -0.000068
    31  C    0.000634   0.000000  -0.001248   0.004951  -0.000433   0.000022
    32  H   -0.000017   0.000001  -0.000130   0.000035  -0.000033   0.000152
    33  C   -0.000142  -0.000001   0.000535  -0.001441   0.000304  -0.000434
    34  H   -0.000004   0.000000   0.000010   0.000023  -0.000006   0.000001
    35  H    0.000010   0.000000  -0.000026  -0.000001  -0.000007   0.000010
    36  C   -0.000157   0.000001   0.000043   0.000609   0.000301   0.000572
    37  H   -0.000043   0.000015   0.000054   0.000420  -0.000426   0.000478
    38  H   -0.000004  -0.000001  -0.000050  -0.000192   0.000031  -0.000328
    39  H    0.000005  -0.000000  -0.000009   0.000007   0.000027   0.000030
    40  C    0.000089  -0.000001  -0.000013   0.000100  -0.000075  -0.000016
    41  H    0.000005  -0.000000   0.000009  -0.000018   0.000004  -0.000008
    42  H    0.000028  -0.000004   0.000178  -0.000645   0.000036   0.000032
    43  H    0.000008   0.000000  -0.000058   0.000067  -0.000001  -0.000005
              25         26         27         28         29         30
     1  C   -0.019247   0.001480  -0.001650   0.003095  -0.000355  -0.000728
     2  C    0.019523   0.005726  -0.003219  -0.008438   0.000461   0.002024
     3  C   -0.072291  -0.030536  -0.028807   0.081909  -0.001301  -0.009285
     4  C    0.000912   0.175257  -0.238034   0.050602   0.010532  -0.006745
     5  O   -0.007778  -0.001181  -0.004105   0.000288   0.000016  -0.000136
     6  C    0.001139  -0.000726   0.001324   0.000093  -0.000004  -0.000105
     7  C    0.052452  -0.136582   0.251731  -0.075797  -0.006092   0.011006
     8  O   -0.000227  -0.000022  -0.000214   0.000056   0.000000  -0.000006
     9  O   -0.000445   0.001143  -0.000288  -0.000407   0.000007   0.000057
    10  O   -0.001406  -0.004845   0.009423   0.005849  -0.002814  -0.001680
    11  O   -0.001620  -0.000252  -0.000853   0.001184  -0.000000  -0.000027
    12  O   -0.001770  -0.028120   0.008715   0.036502  -0.001129  -0.001592
    13  H   -0.000387   0.000030   0.000345   0.000221  -0.000004  -0.000010
    14  H    0.000276  -0.000023   0.000237  -0.000203   0.000001   0.000003
    15  H    0.000035   0.000000   0.000001  -0.000006  -0.000000   0.000000
    16  H    0.000809  -0.000792   0.001253  -0.000350   0.000018   0.000056
    17  H   -0.000065  -0.000254  -0.000040   0.000259  -0.000004   0.000034
    18  H    0.000410   0.000365   0.000110  -0.000636   0.000013   0.000070
    19  H    0.004933  -0.004300   0.003312  -0.000483  -0.000118  -0.000678
    20  H    0.000147   0.000587  -0.000820  -0.000351   0.000020   0.000035
    21  H    0.003619  -0.016173  -0.000699   0.008283  -0.000016  -0.000573
    22  H    0.005702   0.003420  -0.000800  -0.014529  -0.000481  -0.001699
    23  H    0.000737  -0.003184   0.008255  -0.000451  -0.000278   0.000619
    24  H    0.004041   0.002651  -0.013058  -0.005122  -0.000186  -0.000068
    25  H    0.344735   0.209623   0.027879  -0.033274  -0.007876   0.002090
    26  O    0.209623   8.562024   0.081397  -0.341237   0.118981   0.042363
    27  H    0.027879   0.081397   0.430945  -0.039485  -0.011410   0.006684
    28  H   -0.033274  -0.341237  -0.039485   1.166933  -0.090527  -0.134974
    29  O   -0.007876   0.118981  -0.011410  -0.090527   8.261629   0.335661
[...]
 .00011773,0.00005536,-0.00000457,-0.00000920,-0.00000646,0.00007900,-0
 .00019335,-0.00020992,-0.00007870,-0.00103612,0.00072812,-0.00023919,0
 .00010103,0.00051531,-0.00181691,0.00083077,-0.00382311,0.00011752,-0.
 00037300,0.00015296,-0.00014601,0.00027196,0.00006090,0.00026949,-0.00
 025028,0.00007589,-0.00002478,-0.00008687,0.00003296,-0.12105776,-0.02
 688104,-0.12269001,0.01361444,0.00427030,0.00938376,-0.02305544,-0.006
 42286,-0.01290511,0.13228367,0.02962277,0.12855387,0.00000231,0.000001
 04,0.00000081,0.00000101,-0.00000277,0.00000145,0.00000272,0.00000175,
 0.00000381,0.00000497,-0.00000832,0.00001265,-0.00000364,0.00000107,-0
 .00000507,0.00000108,-0.00000008,0.00000238,0.00000782,0.00001191,0.00
 001095,-0.00000129,0.,-0.00000383,-0.00000305,0.00000147,-0.00000290,-
 0.00001402,0.00000077,-0.00001510,-0.00000172,-0.00000050,-0.00000553,
 -0.00002535,0.00000455,-0.00002736,0.00000022,-0.00000055,-0.00000014,
 -0.00000017,-0.00000014,-0.00000026,0.00000042,0.00000011,0.00000051,0
 .00000070,-0.00000017,-0.00000062,-0.00000067,0.00000001,-0.00000028,0
 .00000056,0.00000007,0.00000122,0.00000025,-0.00000145,0.00000038,-0.0
 0000070,0.00000081,0.00000114,0.00000247,0.00000082,0.00000292,0.00000
 019,-0.00000269,-0.00000053,-0.00000165,-0.00000102,-0.00000161,0.0000
 0229,-0.00000008,0.00000265,0.00002079,0.00001395,0.00000432,-0.000057
 81,0.00003443,-0.00002056,0.00003746,-0.00003110,0.00004629,0.00022147
 ,-0.00001787,0.00001448,0.00161155,-0.00004993,0.00099092,-0.00509823,
 0.00348973,-0.00083835,0.00326413,0.02938928,0.00225594,0.00072177,-0.
 00024284,-0.00075360,-0.08116447,-0.01475588,-0.00082235,-0.00065394,-
 0.02832273,-0.00234323,-0.00074122,-0.00187007,-0.00048870,-0.00469660
 ,0.00146845,0.00263533,0.00031905,0.00180396,0.00039338,-0.00007919,-0
 .00001970,-0.00003450,0.00029517,-0.00005729,0.00011463,0.57653637,0.0
 0000210,0.00000031,-0.00000218,0.00000061,-0.00000056,0.,0.00000028,0.
 00000142,0.00000068,0.00000425,-0.00000744,0.00000078,-0.00000401,0.00
 000268,0.00000259,0.00000022,-0.00000048,-0.00000019,0.00000598,0.0000
 0922,0.00000641,-0.00000059,0.00000060,0.00000049,-0.00000202,0.000000
 49,0.00000099,-0.00001726,-0.00000287,0.00000064,-0.00000232,0.0000005
 4,-0.00000092,-0.00003226,0.00001877,-0.00002411,0.00000010,0.00000045
 ,0.00000008,-0.00000047,-0.00000019,0.00000013,0.00000004,-0.00000007,
 -0.00000001,-0.00000018,-0.00000014,0.00000054,-0.00000054,-0.00000012
 ,0.00000006,0.00000046,-0.00000089,-0.00000045,0.00000039,-0.00000079,
 0.00000024,0.00000079,-0.00000063,-0.00000026,-0.00000235,0.00000044,-
 0.00000349,-0.00000022,-0.00000130,-0.00000073,-0.00000182,-0.00000164
 ,-0.00000124,-0.00000120,-0.00000293,-0.00000264,0.00001993,0.00004671
 ,-0.00000995,-0.00047592,0.00022638,0.00028686,0.00004495,-0.00006039,
 0.00006325,0.00068818,-0.00037334,-0.00050285,-0.00247019,-0.00002976,
 -0.00084549,0.00128438,-0.00010268,0.00133577,0.00516048,-0.01729988,-
 0.00347648,-0.00108681,0.00153543,0.00073567,-0.01514085,-0.20311546,-
 0.01314588,-0.00016295,-0.00919018,-0.00123762,-0.00178189,-0.01574014
 ,-0.00304282,0.00139020,0.00036137,-0.00036720,-0.00034600,-0.00009405
 ,0.00007160,0.00005754,0.00004202,-0.00015619,-0.00021078,0.00014433,-
 0.00001266,-0.01021409,0.48498387,-0.00000564,-0.00000129,0.00000313,0
 .00000037,-0.00000173,0.00000257,-0.00000349,0.00000165,-0.00000293,-0
 .00001125,0.00001308,0.00000356,0.00001030,-0.00000397,-0.00000693,-0.
 00000013,0.00000075,-0.00000047,-0.00000777,-0.00000356,-0.00000157,0.
 00000158,-0.00000091,-0.00000060,0.00000359,0.00000153,-0.00000298,0.0
 0002141,-0.00000431,-0.00000629,0.00000512,-0.00000277,0.00000126,0.00
 003078,-0.00002191,0.00002035,-0.00000025,-0.00000014,0.00000005,0.000
 00051,-0.00000028,-0.00000002,-0.00000026,0.00000013,-0.00000016,0.000
 00060,-0.00000025,-0.00000102,0.00000070,0.00000042,-0.00000052,-0.000
 00181,-0.00000043,0.00000124,-0.00000056,-0.00000143,-0.00000009,-0.00
 000239,0.00000218,0.00000038,0.00000166,-0.00000127,0.00000795,-0.0000
 0314,0.00000064,-0.00000278,0.00000252,-0.00000009,0.00000018,-0.00000
 072,0.00000510,0.00000226,-0.00001712,-0.00004256,0.00002065,0.0002812
 2,-0.00009361,-0.00013022,-0.00005189,0.00005702,-0.00005451,-0.000649
 52,0.00013640,0.00029722,0.00026082,-0.00088731,-0.00061322,-0.0017077
 3,0.00194731,0.00025434,-0.00201741,-0.01880051,-0.00320331,-0.0005775
 7,-0.00081309,0.00060828,-0.00223972,-0.01174739,-0.08184189,-0.000210
 32,-0.01794286,-0.00214328,0.00266613,0.02921718,0.00578536,0.00319601
 ,-0.00061153,-0.00125091,0.00007145,-0.00118512,0.00026505,-0.00006194
 ,-0.00022834,0.00032807,0.00010292,0.00029617,0.00006906,-0.00447750,-
 0.00727446,0.57709680,0.00000366,0.00000090,-0.00000098,0.00000137,-0.
 00000118,0.00000017,0.00000313,-0.00000031,0.00000294,0.00001083,-0.00
 001198,0.00000356,-0.00000793,0.00000440,0.00000253,0.00000093,-0.0000
 0067,0.00000107,0.00000325,0.00000284,0.00000144,-0.00000160,0.0000008
 2,-0.00000117,-0.00000443,0.00000124,-0.00000005,-0.00001578,0.0000076
 8,-0.00000437,-0.00000482,0.00000185,-0.00000312,-0.00001819,0.0000119
 8,-0.00001190,0.00000004,0.00000018,-0.00000005,-0.00000051,0.00000012
 ,0.,0.00000032,0.00000001,0.00000027,0.,-0.00000014,0.00000036,-0.0000
 0091,-0.00000008,-0.00000005,0.00000220,0.00000017,-0.00000011,0.00000
 068,0.00000046,0.00000023,0.00000144,-0.00000105,-0.00000005,0.0000026
 9,-0.00000061,-0.00000201,0.00000151,-0.00000106,0.00000197,-0.0000014
 1,0.00000050,-0.00000041,-0.00000018,-0.00000298,-0.00000078,0.0000148
 1,0.00000950,-0.00000373,-0.00015531,0.00006513,0.00005676,0.00002698,
 -0.00003424,0.00002846,0.00028142,-0.00007951,-0.00012498,0.00008485,0
 .00048481,0.00039782,0.00095887,-0.00058284,-0.00015260,0.00030070,-0.
 00137836,-0.00059069,-0.00001139,-0.00002216,-0.00001096,0.00433699,-0
 .00296402,-0.00321353,0.00071741,0.00039254,-0.00000641,0.00003408,0.0
 0044455,-0.00000531,0.00006284,-0.00012701,-0.00004144,0.00002204,-0.0
 0004050,-0.00002125,-0.00000254,0.00001464,0.00000657,0.00000622,0.000
 00364,-0.00000817,-0.23165594,0.08350839,0.10016020,0.24723784,-0.0000
 0283,-0.00000090,0.00000097,0.00000023,-0.00000024,0.00000059,-0.00000
 097,-0.00000173,-0.00000207,-0.00000262,0.00000300,-0.00000117,0.00000
 403,0.00000041,-0.00000040,-0.00000053,-0.00000005,-0.00000073,-0.0000
 0727,-0.00000912,-0.00000615,0.00000106,0.00000032,0.00000080,0.000000
 95,0.00000171,-0.00000021,0.00001178,0.00000518,0.00000204,0.00000192,
 0.00000080,0.00000133,0.00002523,-0.00000852,0.00001830,-0.00000017,0.
 00000018,0.00000006,0.00000037,0.00000001,0.00000002,-0.00000039,-0.00
 000021,-0.00000013,0.,0.,-0.00000021,0.00000046,0.00000023,-0.00000019
 ,0.00000024,-0.00000035,-0.00000009,0.00000015,0.00000047,0.00000029,-
 0.00000059,-0.00000020,-0.00000017,0.00000115,-0.00000306,0.00000097,-
 0.00000098,0.00000074,-0.00000003,0.00000176,0.00000104,0.00000079,-0.
 00000098,0.00000183,0.00000077,-0.00001788,-0.00003248,0.00000753,0.00
 020864,-0.00009039,-0.00011311,-0.00003682,0.00003547,-0.00003874,-0.0
 0040904,0.00017326,0.00022860,0.00027577,0.00027565,-0.00003488,-0.000
 11951,-0.00023580,0.00008564,-0.00321382,-0.00633006,0.00059886,-0.000
 07335,0.00011438,-0.00008667,0.02803459,-0.01197532,-0.01571891,-0.000
 19244,0.00180543,-0.00001583,0.00010704,0.00106559,0.00063784,0.001866
 87,-0.00031271,-0.00100111,-0.00005509,-0.00077455,-0.00010318,-0.0000
 0747,-0.00002615,0.00008297,-0.00004656,0.00004038,-0.00001027,0.08095
 266,-0.08085497,-0.04265700,-0.08841768,0.08968077,-0.00000143,-0.0000
 0037,0.00000023,-0.00000062,0.00000037,0.00000010,-0.00000089,-0.00000
 012,-0.00000057,-0.00000269,0.00000255,-0.00000091,0.00000265,-0.00000
 128,-0.00000079,-0.00000042,0.00000006,0.00000006,-0.00000074,-0.00000
 018,-0.00000014,0.00000078,-0.00000019,-0.00000004,0.00000165,-0.00000
 041,-0.00000019,0.00000267,-0.00000313,0.00000240,0.00000146,-0.000000
 30,0.00000036,0.00000196,0.00000047,-0.00000023,-0.00000003,-0.0000000
 7,0.,0.00000030,0.00000004,-0.00000004,-0.00000028,-0.00000006,0.00000
 006,-0.00000011,0.00000005,-0.00000013,0.00000032,0.00000006,0.0000000
 4,-0.00000083,-0.00000007,0.00000010,-0.00000024,0.,0.00000004,-0.0000
 0075,0.00000037,0.00000021,-0.00000198,0.00000082,-0.00000021,-0.00000
 005,0.00000013,0.00000016,-0.00000003,-0.00000016,0.00000034,-0.000000
 56,0.00000025,0.00000023,-0.00000544,0.00000865,-0.00000222,-0.0000231
 9,-0.00000402,0.00001141,-0.00000355,0.00000036,0.00000226,0.00006988,
 0.00001584,-0.00002205,0.00009760,0.00055793,0.00038870,0.00060703,-0.
 00042045,-0.00032822,-0.00108484,-0.00130591,0.00051286,-0.00021426,0.
 00005593,0.00029081,0.00207793,-0.00067498,-0.00247936,0.00011197,0.00
 013112,-0.00003376,-0.00030494,-0.00020906,0.00024008,0.00041738,-0.00
 005559,0.00004758,0.00001737,-0.00011719,-0.00001334,-0.00000392,-0.00
 006035,-0.00000545,0.00000358,0.00002065,-0.00000835,0.09938073,-0.043
 48553,-0.09903112,-0.10800176,0.04871606,0.10296526,-0.00000025,-0.000
 00058,-0.00000072,0.00000009,0.00000059,-0.00000093,-0.00000008,-0.000
 00105,-0.00000163,0.00000124,0.00000036,-0.00000498,-0.00000013,0.0000
 0177,0.00000331,-0.00000056,-0.00000015,-0.00000129,-0.00000140,-0.000
 00521,-0.00000371,0.00000034,0.00000084,0.00000211,-0.00000002,0.00000
 017,0.00000178,0.00000295,-0.00000024,0.00000478,-0.00000042,0.0000009
 7,0.00000246,0.00000579,0.00000161,0.00000782,-0.00000018,0.00000038,0
 .00000007,-0.00000003,-0.00000003,0.00000009,0.00000002,-0.00000028,-0
 .00000030,-0.00000031,0.00000003,0.00000027,0.00000024,0.00000002,0.00
 000014,0.00000053,-0.00000022,-0.00000078,-0.00000018,0.00000116,0.,0.
 00000112,-0.00000119,-0.00000085,-0.00000089,-0.00000098,-0.00000190,-
 0.00000080,0.00000172,-0.00000014,0.00000082,-0.00000027,0.00000012,-0
 .00000100,-0.00000026,-0.00000181,-0.00000962,0.00000088,0.00000033,0.
 00002475,-0.00004344,-0.00000901,-0.00000937,0.00000461,-0.00001326,0.
 00001709,0.00010835,0.00002329,-0.00024253,0.00134558,0.00068462,-0.00
 074923,-0.00033894,0.00102779,-0.00094943,-0.00032040,0.00024463,0.000
 03501,-0.00006844,-0.00001130,-0.00090872,-0.00076203,-0.00031824,0.00
 104856,-0.00058536,0.00028160,0.00019225,-0.00041238,0.00012089,0.0001
 6831,-0.00006761,-0.00016804,0.00000800,-0.00012131,-0.00002164,0.0000
 0320,-0.00001959,-0.00000235,0.00005994,-0.00002380,0.00001121,-0.2080
 0769,-0.04689846,-0.11965289,-0.02047889,-0.00605096,-0.01634639,0.225
 87417,0.00000069,0.00000068,-0.00000024,-0.00000163,0.00000217,-0.0000
 0199,-0.00000072,0.00000249,-0.00000013,-0.00000148,0.00000528,-0.0000
 0573,-0.00000038,-0.00000268,0.00000176,-0.00000084,0.00000045,-0.0000
 0089,0.00000337,0.00000043,-0.00000058,0.00000056,-0.00000115,0.000001
 23,0.00000242,-0.00000420,0.00000139,-0.00000131,-0.00000723,0.0000061
 1,0.00000070,-0.00000274,0.00000205,-0.00000991,0.00000395,-0.00000142
 ,0.00000006,-0.00000022,0.00000004,0.,0.00000015,0.00000007,-0.0000000
 3,0.00000030,-0.00000020,-0.00000042,0.00000004,0.00000028,0.00000020,
 -0.00000017,0.00000053,-0.00000200,0.00000105,0.00000007,-0.00000066,0
 .00000027,-0.00000085,0.00000019,0.00000071,-0.00000022,-0.00000249,0.
 00000306,-0.00000228,0.00000200,0.00000144,0.00000006,-0.00000055,-0.0
 0000039,0.00000019,-0.00000048,-0.00000109,-0.00000261,0.00000390,0.00
 002294,-0.00000611,-0.00014863,0.00004763,0.00007756,0.00000871,-0.000
 01645,0.00001149,0.00028231,-0.00006311,-0.00013235,0.00077728,0.00048
 059,0.00053767,0.00243784,-0.00022711,-0.00037727,-0.00161604,0.000955
 98,-0.00023677,0.00014087,-0.00004831,-0.00005665,-0.02717609,-0.00668
 350,-0.01949206,0.00014104,-0.00644567,-0.00098849,0.00021097,0.001738
 91,0.00051682,0.00012521,0.00003894,0.00007982,0.00012479,-0.00005667,
 0.00003079,-0.00003115,-0.00001324,0.00002703,0.00008748,0.00007464,0.
 00004442,-0.04841682,-0.06127359,-0.03441591,0.00866808,0.00219919,0.0
 0775743,0.05214808,0.06644927,0.00000399,0.00000030,-0.00000124,0.0000
 0217,-0.00000262,0.00000055,0.00000483,-0.00000367,0.00000297,0.000015
 96,-0.00002210,0.00000483,-0.00001046,0.00000974,0.00000505,0.00000081
 ,-0.00000124,0.00000140,0.00000119,-0.00000146,-0.00000095,-0.00000193
 ,0.00000260,-0.00000083,-0.00000731,0.00000459,0.00000036,-0.00002047,
 0.00001819,-0.00000394,-0.00000667,0.00000534,-0.00000442,-0.00001799,
 0.00001961,-0.00001275,-0.00000017,0.00000042,-0.00000013,-0.00000036,
 0.00000023,-0.00000019,0.00000022,-0.00000066,0.00000030,-0.00000012,-
 0.00000013,0.00000034,-0.00000084,0.,-0.00000017,0.00000445,-0.0000003
 9,-0.00000058,0.00000126,0.00000187,0.00000104,0.00000218,-0.00000309,
 -0.00000040,0.00000406,-0.00000428,-0.00000476,0.00000099,-0.00000137,
 0.00000380,-0.00000116,0.00000101,-0.00000009,-0.00000070,-0.00000458,
 -0.00000134,0.00001627,0.00000419,-0.00000672,-0.00018410,0.00008362,0
 .00007115,0.00003277,-0.00004322,0.00003486,0.00034813,-0.00009149,-0.
 00016498,0.00006869,0.00089409,0.00048397,0.00220728,-0.00095101,0.000
 13805,-0.00133862,-0.00017917,-0.00033787,0.00006016,-0.00005180,0.000
 00889,-0.00087033,-0.00044353,-0.00193981,0.00022312,-0.00037605,0.001
 23343,0.00052477,-0.00027145,0.00049393,0.00016021,-0.00009446,0.00001
 298,0.00001707,-0.00005279,-0.00000938,-0.00000205,-0.00000117,-0.0000
 0126,0.00004551,0.00003688,0.00001058,-0.12129001,-0.03518002,-0.13751
 620,0.01112927,0.00405058,0.00886029,0.13126348,0.03962702,0.14334115,
 -0.00000271,-0.00000039,0.00000042,-0.00000173,0.00000257,-0.00000093,
 -0.00000372,0.00000166,-0.00000287,-0.00001147,0.00001473,-0.00000623,
 0.00000684,-0.00000656,-0.00000168,-0.00000093,0.00000096,-0.00000121,
 0.00000027,0.00000043,-0.00000006,0.00000151,-0.00000146,0.00000125,0.
 00000545,-0.00000393,0.00000077,0.00001326,-0.00001488,0.00000678,0.00
 000481,-0.00000345,0.00000384,0.00000885,-0.00000903,0.00000705,0.0000
 0008,-0.00000024,0.00000002,0.00000032,-0.00000008,0.00000013,-0.00000
 028,0.00000028,-0.00000023,-0.00000014,0.00000020,-0.00000002,0.000000
 79,-0.00000003,0.00000031,-0.00000326,0.00000031,0.,-0.00000066,-0.000
 00050,-0.00000064,-0.00000158,0.00000186,0.00000004,-0.00000478,0.0000
 0452,0.00000129,-0.00000047,0.00000146,-0.00000231,0.00000044,-0.00000
 069,0.00000056,0.00000011,0.00000214,0.,-0.00001368,0.00001424,-0.0000
 0173,0.00002952,-0.00003461,0.00000190,-0.00001778,0.00002032,-0.00001
 439,-0.00004496,0.00003466,0.00002018,-0.00000862,-0.00011943,0.000156
 88,0.00002454,0.00002830,-0.00032641,0.00039952,0.00053571,-0.00070351
 ,0.00015851,-0.00002265,-0.00002643,-0.00131993,-0.00097937,0.00303411
 ,-0.00007272,0.00012887,0.00036983,0.00091810,-0.00059173,-0.00016217,
 -0.00000528,0.00008486,-0.00008792,0.00000049,-0.00003016,0.00000366,-
 0.00002790,0.00003361,0.00004824,-0.00001695,-0.00001759,-0.00000032,-
 0.05084740,-0.01331611,0.02488311,-0.00175726,-0.01283695,0.02320468,0
 .00391732,0.01224490,-0.02238554,0.04867350,-0.00000035,0.,0.00000138,
 0.00000041,-0.00000113,0.00000100,0.00000114,-0.00000095,0.00000089,0.
 00000163,-0.00000297,0.00000549,-0.00000005,0.00000113,-0.00000245,0.0
 0000043,-0.00000043,0.00000127,-0.00000218,-0.00000172,-0.00000101,-0.
 00000029,0.00000052,-0.00000183,-0.00000093,0.00000113,-0.00000167,-0.
 00000157,0.00000543,-0.00000597,-0.00000057,0.00000121,-0.00000197,0.0
 0000434,0.00000146,-0.00000197,-0.00000007,-0.00000022,0.,0.00000023,0
 .00000016,-0.00000019,-0.00000010,-0.00000022,0.00000025,0.00000038,-0
 .00000005,-0.00000049,-0.00000002,0.00000011,-0.00000020,0.00000049,0.
 00000040,0.00000044,-0.00000005,0.00000039,0.00000021,-0.00000029,-0.0
 0000034,0.00000061,0.00000238,-0.00000146,0.00000161,-0.00000047,-0.00
 000088,0.00000086,-0.00000006,0.00000052,0.00000027,-0.00000032,-0.000
 00026,0.00000213,0.00000288,-0.00001190,0.00001174,0.00006709,-0.00002
 427,-0.00006091,-0.00000179,-0.00000076,0.00000097,-0.00011618,0.00005
 745,0.00008755,0.00043047,-0.00007392,-0.00013454,-0.00002797,-0.00014
 425,0.00016873,-0.00073903,0.00166637,0.00162234,0.00039384,0.00013484
 ,-0.00069902,-0.00294677,-0.01585648,0.03004222,-0.00017328,0.00128276
 ,-0.00022521,-0.00060505,-0.00620791,-0.00155388,-0.00012683,0.0000885
 9,-0.00019476,0.00001641,0.00001359,-0.00009142,0.00002758,0.00012983,
 -0.00010863,-0.00002595,-0.00003764,0.00000906,-0.01316077,-0.09922053
 ,0.10506449,0.00004195,0.00525072,-0.01092973,0.00210606,0.00281695,-0
 .00697853,0.01483323,0.11013473,0.00000133,0.00000071,-0.00000155,-0.0
 0000202,0.00000332,-0.00000314,-0.00000135,0.00000316,-0.00000060,-0.0
 0000254,0.00000778,-0.00000806,-0.00000039,-0.00000452,0.00000222,-0.0
 0000060,0.00000074,-0.00000176,0.00000433,0.00000377,0.00000062,0.0000
 0019,-0.00000170,0.00000234,0.00000301,-0.00000488,0.00000281,0.000000
 44,-0.00001124,0.00000801,0.00000085,-0.00000314,0.00000390,-0.0000078
 6,-0.00000108,0.00000011,0.00000023,-0.00000003,0.00000007,-0.00000034
 ,-0.00000010,0.00000030,0.00000025,0.00000061,-0.00000043,-0.00000041,
 0.00000016,0.00000074,0.00000006,-0.00000035,0.00000062,-0.00000219,0.
 00000084,-0.00000062,-0.00000024,-0.00000041,-0.00000091,0.00000056,0.
 00000102,-0.00000060,-0.00000320,0.00000423,-0.00000143,0.00000110,0.0
 0000121,-0.00000107,-0.00000047,-0.00000077,-0.00000012,0.00000041,0.0
 0000014,-0.00000240,-0.00000020,0.00002391,-0.00000528,-0.00008952,0.0
 0001813,0.00005843,0.00000648,-0.00000518,0.00000557,0.00017575,-0.000
 04223,-0.00010265,-0.00044117,0.00018520,0.00000582,0.00013052,0.00018
 203,-0.00028140,0.00014932,-0.00036507,0.00100276,-0.00039384,0.000402
 73,0.00006486,-0.00033176,-0.00218517,0.00481693,0.00007960,0.00056207
 ,0.00044972,0.00032958,-0.00122072,0.00110003,-0.00017862,-0.00015497,
 0.00030293,-0.00000523,0.00009754,-0.00001159,0.00005040,-0.00009413,-
 0.00013159,-0.00000077,0.00000374,-0.00001538,0.02525512,0.10626661,-0
 .25895677,0.00041225,0.00535628,-0.01139649,0.00288135,0.00699892,-0.0
 1470191,-0.02802043,-0.11602915,0.27779697\\-0.00000057,-0.00001237,0.
 00000392,0.00000089,-0.00000806,-0.00000631,0.00000097,0.00000166,-0.0
 0000574,0.00000113,-0.00000197,0.00000089,-0.00000182,-0.00000619,0.00
 000835,-0.00000145,-0.00001081,0.00001107,0.00000067,0.00000805,0.0000
 0646,-0.00000076,-0.00000017,0.00001037,0.00000076,-0.00001439,-0.0000
 1406,-0.00000008,-0.00000500,-0.00000622,0.00000056,0.00001012,-0.0000
 0341,-0.00000095,0.00000636,0.00001450,-0.00000222,-0.00001421,0.00001
 779,-0.00000137,-0.00001555,0.00000719,-0.00000234,-0.00000196,0.00001
 539,-0.00000088,-0.00001998,0.00000271,0.00000068,-0.00000686,-0.00000
 871,0.00000172,-0.00001191,-0.00002009,0.00000148,0.00000427,-0.000013
 70,-0.00000004,0.00000780,0.00000310,0.00000074,-0.00001064,-0.0000088
 9,0.00000027,0.00001236,0.00000047,-0.00000039,0.00001237,0.00000963,-
 0.00000308,0.00000108,0.00001609,0.00000059,-0.00000436,-0.00000068,-0
 .00000072,-0.00000634,-0.00000023,-0.00000249,-0.00000168,0.00000851,-
 0.00000010,0.00000115,-0.00000026,0.00000203,0.00000779,0.00000145,0.0
 0000095,0.00000823,-0.00000940,-0.00000013,0.00000115,-0.00000226,0.00
 000014,-0.00000523,-0.00000458,0.00000094,0.00000881,-0.00000571,0.000
 00055,0.00000555,-0.00000303,0.00000072,0.00001586,-0.00000132,-0.0000
 0127,0.00000128,0.00001071,-0.00000102,-0.00000375,0.00001291,-0.00000
 130,0.00000802,0.00001445,-0.00000187,-0.00000266,0.00001159,0.0000023
 4,0.00000967,-0.00001544,0.00000218,0.00001460,-0.00001882,0.00000237,
 0.00001450,-0.00001813,0.00000221,0.00000343,-0.00002055\\\@


 THE MOST SERIOUS THREAT TO THE SURVIVAL OF MANKIND IS NOT NOW
 IGNORANCE IN THE TRADITIONAL SENSE,
 BUT A MORALLY NEUTRAL, AN INSENSITIVE OR INHIBITED HUMAN INTELLIGENCE.

                     -- MARGO JEFFERSON IN NEWSWEEK, SEPTEMBER 2, 1974
 Job cpu time:       0 days  7 hours 18 minutes 44.2 seconds.
 Elapsed time:       0 days  0 hours 24 minutes 23.6 seconds.
 File lengths (MBytes):  RWF=   1361 Int=      0 D2E=      0 Chk=     40 Scr=      1
 Normal termination of Gaussian 16 at Wed Jan 23 10:01:22 2019.
