 Entering Gaussian System, Link 0=/nopt/nrel/apps/gaussian/g16B/g16/g16
 Initial command:
 /nopt/nrel/apps/gaussian/g16B/g16/l1.exe "/scratch/ykim/gaussianScratch.547149/Gau-280130.inp" -scrdir="/scratch/ykim/gaussianScratch.547149/"
 Default is to use a total of  36 processors:
                               36 via shared-memory
                                1 via Linda
 Entering Link 1 = /nopt/nrel/apps/gaussian/g16B/g16/l1.exe PID=    280132.
  
 Copyright (c) 1988-2017, Gaussian, Inc.  All Rights Reserved.
  
 This is part of the Gaussian(R) 16 program.  It is based on
 the Gaussian(R) 09 system (copyright 2009, Gaussian, Inc.),
 the Gaussian(R) 03 system (copyright 2003, Gaussian, Inc.),
 the Gaussian(R) 98 system (copyright 1998, Gaussian, Inc.),
 the Gaussian(R) 94 system (copyright 1995, Gaussian, Inc.),
 the Gaussian 92(TM) system (copyright 1992, Gaussian, Inc.),
 the Gaussian 90(TM) system (copyright 1990, Gaussian, Inc.),
 the Gaussian 88(TM) system (copyright 1988, Gaussian, Inc.),
 the Gaussian 86(TM) system (copyright 1986, Carnegie Mellon
 University), and the Gaussian 82(TM) system (copyright 1983,
 Carnegie Mellon University). Gaussian is a federally registered
 trademark of Gaussian, Inc.
  
 This software contains proprietary and confidential information,
 including trade secrets, belonging to Gaussian, Inc.
  
 This software is provided under written license and may be
 used, copied, transmitted, or stored only in accord with that
 written license.
  
 The following legend is applicable only to US Government
 contracts under FAR:
  
                    RESTRICTED RIGHTS LEGEND
  
 Use, reproduction and disclosure by the US Government is
 subject to restrictions as set forth in subparagraphs (a)
 and (c) of the Commercial Computer Software - Restricted
 Rights clause in FAR 52.227-19.
  
 Gaussian, Inc.
 340 Quinnipiac St., Bldg. 40, Wallingford CT 06492
  
  
 ---------------------------------------------------------------
 Warning -- This program may not be used in any manner that
 competes with the business of Gaussian, Inc. or will provide
 assistance to any competitor of Gaussian, Inc.  The licensee
 of this program is prohibited from giving any competitor of
 Gaussian, Inc. access to this program.  By using this program,
 the user acknowledges that Gaussian, Inc. is engaged in the
 business of creating and licensing software in the field of
 computational chemistry and represents and warrants to the
 licensee that it is not a competitor of Gaussian, Inc. and that
 it will not use this program in any manner prohibited above.
 ---------------------------------------------------------------
  

 Cite this work as:
 Gaussian 16, Revision B.01,
 M. J. Frisch, G. W. Trucks, H. B. Schlegel, G. E. Scuseria, 
 M. A. Robb, J. R. Cheeseman, G. Scalmani, V. Barone, 
 G. A. Petersson, H. Nakatsuji, X. Li, M. Caricato, A. V. Marenich, 
 J. Bloino, B. G. Janesko, R. Gomperts, B. Mennucci, H. P. Hratchian, 
 J. V. Ortiz, A. F. Izmaylov, J. L. Sonnenberg, D. Williams-Young, 
 F. Ding, F. Lipparini, F. Egidi, J. Goings, B. Peng, A. Petrone, 
 T. Henderson, D. Ranasinghe, V. G. Zakrzewski, J. Gao, N. Rega, 
 G. Zheng, W. Liang, M. Hada, M. Ehara, K. Toyota, R. Fukuda, 
 J. Hasegawa, M. Ishida, T. Nakajima, Y. Honda, O. Kitao, H. Nakai, 
 T. Vreven, K. Throssell, J. A. Montgomery, Jr., J. E. Peralta, 
 F. Ogliaro, M. J. Bearpark, J. J. Heyd, E. N. Brothers, K. N. Kudin, 
 V. N. Staroverov, T. A. Keith, R. Kobayashi, J. Normand, 
 K. Raghavachari, A. P. Rendell, J. C. Burant, S. S. Iyengar, 
 J. Tomasi, M. Cossi, J. M. Millam, M. Klene, C. Adamo, R. Cammi, 
 J. W. Ochterski, R. L. Martin, K. Morokuma, O. Farkas, 
 J. B. Foresman, and D. J. Fox, Gaussian, Inc., Wallingford CT, 2016.
 
 ******************************************
 Gaussian 16:  ES64L-G16RevB.01 20-Dec-2017
                15-Jan-2019 
 ******************************************
 %nprocshared=18
 Will use up to   18 processors via shared memory.
 %mem=24GB
 Default route: CacheSize=180224 MaxDisk=256GB
 ----------------------------------------------------------------------
 # opt freq 6-311++g(d,p) m062x scrf=(smd,solvent=ethanol) scf=(xqc,max
 conventionalcycles=400) temperature=443.15
 ----------------------------------------------------------------------
 1/4=180224,18=20,19=15,26=3,38=1,112=443150/1,3;
 2/4=180224,9=110,12=2,17=6,18=5,40=1/2;
 3/4=180224,5=4,6=6,7=1111,11=2,25=1,30=1,70=32201,71=1,72=4,74=-55/1,2,3;
 4/4=180224/1;
 5/4=180224,5=2,8=3,13=1,38=5,53=4,85=400/2,8;
 6/4=180224,7=2,8=2,9=2,10=2,28=1/1;
 7/4=180224/1,2,3,16;
 1/4=180224,18=20,19=15,26=3/3(2);
 2/4=180224,9=110/2;
 99/4=180224/99;
 2/4=180224,9=110/2;
 3/4=180224,5=4,6=6,7=1111,11=2,25=1,30=1,70=32205,71=1,72=4,74=-55/1,2,3;
 4/4=180224,5=5,16=3,69=1/1;
 5/4=180224,5=2,8=3,13=1,38=5,53=4,85=400/2,8;
 7/4=180224/1,2,3,16;
 1/4=180224,18=20,19=15,26=3/3(-5);
 2/4=180224,9=110/2;
 6/4=180224,7=2,8=2,9=2,10=2,19=2,28=1/1;
 99/4=180224,9=1/99;
 -------------------
 Title Card Required
 -------------------
 Symbolic Z-matrix:
 Charge =  1 Multiplicity = 1
 C                     3.39424   0.3138   -1.20697 
 C                     3.62227   1.24939  -0.00723 
 C                     2.8288    0.58306   1.12923 
 C                     1.65972  -0.02996   0.33063 
 O                     2.25587  -0.50082  -0.85778 
 C                     4.55538  -0.58981  -1.54727 
 C                     0.96397  -1.19745   1.00589 
 O                     4.90644  -1.33695  -0.38719 
 O                     3.04125   2.5053   -0.34801 
 O                     0.69022   0.96467   0.04406 
 O                     3.57957  -0.37855   1.82803 
 O                    -0.00603  -1.80345   0.1476 
 H                     4.26242  -1.26299  -2.35825 
 H                     5.39405   0.02787  -1.88189 
 H                     5.71627  -1.83257  -0.55052 
 H                     3.15051   0.9149   -2.08714 
 H                     4.67884   1.35772   0.24781 
 H                     3.2095    3.13083   0.36791 
 H                     2.46579   1.31511   1.85135 
 H                     4.10581  -0.89198   1.1886 
 H                     1.1418    1.76913  -0.2605 
 H                     0.42862  -0.84444   1.88783 
 H                     1.70405  -1.93965   1.30098 
 H                     0.44376  -2.2117   -0.60497 
 H                    -1.08274   0.6677   -0.38712 
 O                    -1.74122  -0.05751  -0.45971 
 H                    -1.16849  -0.87357  -0.24199 
 H                    -2.5162    0.07614   0.25346 
 O                    -3.57448   0.23741   1.16602 
 H                    -3.34487   0.85465   1.87337 
 C                    -4.84571   0.6077    0.58303 
 H                    -5.55672   0.74392   1.39912 
 H                    -4.73019   1.5553    0.0477 
 C                    -5.2717   -0.50033  -0.35728 
 H                    -5.46614  -1.38991   0.20464 
 H                    -4.49056  -0.68843  -1.06392 
 H                    -6.15937  -0.20554  -0.87692 
 
 Add virtual bond connecting atoms O29        and H28        Dist= 2.66D+00.
 Add virtual bond connecting atoms H27        and O12        Dist= 2.91D+00.

 GradGradGradGradGradGradGradGradGradGradGradGradGradGradGradGradGradGrad
 Berny optimization.
 Initialization pass.
                           ----------------------------
                           !    Initial Parameters    !
                           ! (Angstroms and Degrees)  !
 --------------------------                            --------------------------
 ! Name  Definition              Value          Derivative Info.                !
 --------------------------------------------------------------------------------
 ! R1    R(1,2)                  1.5384         estimate D2E/DX2                !
 ! R2    R(1,5)                  1.4427         estimate D2E/DX2                !
 ! R3    R(1,6)                  1.5101         estimate D2E/DX2                !
 ! R4    R(1,16)                 1.0934         estimate D2E/DX2                !
 ! R5    R(2,3)                  1.5379         estimate D2E/DX2                !
 ! R6    R(2,9)                  1.4251         estimate D2E/DX2                !
 ! R7    R(2,17)                 1.0923         estimate D2E/DX2                !
 ! R8    R(3,4)                  1.5428         estimate D2E/DX2                !
 ! R9    R(3,11)                 1.4059         estimate D2E/DX2                !
 ! R10   R(3,19)                 1.0905         estimate D2E/DX2                !
 ! R11   R(4,5)                  1.4105         estimate D2E/DX2                !
 ! R12   R(4,7)                  1.5176         estimate D2E/DX2                !
 ! R13   R(4,10)                 1.4182         estimate D2E/DX2                !
 ! R14   R(6,8)                  1.4238         estimate D2E/DX2                !
 ! R15   R(6,13)                 1.0939         estimate D2E/DX2                !
 ! R16   R(6,14)                 1.094          estimate D2E/DX2                !
 ! R17   R(7,12)                 1.43           estimate D2E/DX2                !
 ! R18   R(7,22)                 1.0904         estimate D2E/DX2                !
 ! R19   R(7,23)                 1.0889         estimate D2E/DX2                !
 ! R20   R(8,15)                 0.9634         estimate D2E/DX2                !
 ! R21   R(9,18)                 0.9655         estimate D2E/DX2                !
 ! R22   R(10,21)                0.9715         estimate D2E/DX2                !
 ! R23   R(11,20)                0.9744         estimate D2E/DX2                !
 ! R24   R(12,24)                0.9671         estimate D2E/DX2                !
 ! R25   R(12,27)                1.5388         estimate D2E/DX2                !
 ! R26   R(25,26)                0.9822         estimate D2E/DX2                !
 ! R27   R(26,27)                1.0205         estimate D2E/DX2                !
 ! R28   R(26,28)                1.0616         estimate D2E/DX2                !
 ! R29   R(28,29)                1.4067         estimate D2E/DX2                !
 ! R30   R(29,30)                0.9665         estimate D2E/DX2                !
 ! R31   R(29,31)                1.4467         estimate D2E/DX2                !
 ! R32   R(31,32)                1.0909         estimate D2E/DX2                !
 ! R33   R(31,33)                1.0945         estimate D2E/DX2                !
 ! R34   R(31,34)                1.5144         estimate D2E/DX2                !
 ! R35   R(34,35)                1.07           estimate D2E/DX2                !
 ! R36   R(34,36)                1.07           estimate D2E/DX2                !
 ! R37   R(34,37)                1.07           estimate D2E/DX2                !
 ! A1    A(2,1,5)              105.7587         estimate D2E/DX2                !
 ! A2    A(2,1,6)              115.1929         estimate D2E/DX2                !
 ! A3    A(2,1,16)             109.0556         estimate D2E/DX2                !
 ! A4    A(5,1,6)              108.8671         estimate D2E/DX2                !
 ! A5    A(5,1,16)             109.231          estimate D2E/DX2                !
 ! A6    A(6,1,16)             108.6001         estimate D2E/DX2                !
 ! A7    A(1,2,3)              103.6691         estimate D2E/DX2                !
 ! A8    A(1,2,9)              106.8001         estimate D2E/DX2                !
 ! A9    A(1,2,17)             112.6913         estimate D2E/DX2                !
 ! A10   A(3,2,9)              110.3765         estimate D2E/DX2                !
 ! A11   A(3,2,17)             111.6845         estimate D2E/DX2                !
 ! A12   A(9,2,17)             111.2718         estimate D2E/DX2                !
 ! A13   A(2,3,4)              100.4051         estimate D2E/DX2                !
 ! A14   A(2,3,11)             112.8377         estimate D2E/DX2                !
 ! A15   A(2,3,19)             111.73           estimate D2E/DX2                !
 ! A16   A(4,3,11)             112.9644         estimate D2E/DX2                !
 ! A17   A(4,3,19)             110.9322         estimate D2E/DX2                !
 ! A18   A(11,3,19)            107.9254         estimate D2E/DX2                !
 ! A19   A(3,4,5)              104.389          estimate D2E/DX2                !
 ! A20   A(3,4,7)              115.0084         estimate D2E/DX2                !
 ! A21   A(3,4,10)             110.1169         estimate D2E/DX2                !
 ! A22   A(5,4,7)              108.1712         estimate D2E/DX2                !
 ! A23   A(5,4,10)             110.6589         estimate D2E/DX2                !
 ! A24   A(7,4,10)             108.4234         estimate D2E/DX2                !
 ! A25   A(1,5,4)              110.4222         estimate D2E/DX2                !
 ! A26   A(1,6,8)              108.6608         estimate D2E/DX2                !
 ! A27   A(1,6,13)             109.2301         estimate D2E/DX2                !
 ! A28   A(1,6,14)             108.6943         estimate D2E/DX2                !
 ! A29   A(8,6,13)             110.3128         estimate D2E/DX2                !
 ! A30   A(8,6,14)             110.883          estimate D2E/DX2                !
 ! A31   A(13,6,14)            109.0252         estimate D2E/DX2                !
 ! A32   A(4,7,12)             111.7121         estimate D2E/DX2                !
 ! A33   A(4,7,22)             109.6279         estimate D2E/DX2                !
 ! A34   A(4,7,23)             109.4726         estimate D2E/DX2                !
 ! A35   A(12,7,22)            106.835          estimate D2E/DX2                !
 ! A36   A(12,7,23)            109.5627         estimate D2E/DX2                !
 ! A37   A(22,7,23)            109.5831         estimate D2E/DX2                !
 ! A38   A(6,8,15)             109.8208         estimate D2E/DX2                !
 ! A39   A(2,9,18)             108.8199         estimate D2E/DX2                !
 ! A40   A(4,10,21)            109.0458         estimate D2E/DX2                !
 ! A41   A(3,11,20)            108.8219         estimate D2E/DX2                !
 ! A42   A(7,12,24)            109.2974         estimate D2E/DX2                !
 ! A43   A(7,12,27)            114.0995         estimate D2E/DX2                !
 ! A44   A(24,12,27)           114.1682         estimate D2E/DX2                !
 ! A45   A(25,26,27)           101.444          estimate D2E/DX2                !
 ! A46   A(25,26,28)           110.2908         estimate D2E/DX2                !
 ! A47   A(27,26,28)           111.5335         estimate D2E/DX2                !
 ! A48   A(12,27,26)           163.9995         estimate D2E/DX2                !
 ! A49   A(28,29,30)           111.6719         estimate D2E/DX2                !
 ! A50   A(28,29,31)           115.4038         estimate D2E/DX2                !
 ! A51   A(30,29,31)           109.8905         estimate D2E/DX2                !
 ! A52   A(29,31,32)           107.6502         estimate D2E/DX2                !
 ! A53   A(29,31,33)           109.0241         estimate D2E/DX2                !
 ! A54   A(29,31,34)           108.0658         estimate D2E/DX2                !
 ! A55   A(32,31,33)           109.0616         estimate D2E/DX2                !
 ! A56   A(32,31,34)           111.871          estimate D2E/DX2                !
 ! A57   A(33,31,34)           111.0672         estimate D2E/DX2                !
 ! A58   A(31,34,35)           109.4712         estimate D2E/DX2                !
 ! A59   A(31,34,36)           109.4712         estimate D2E/DX2                !
 ! A60   A(31,34,37)           109.4712         estimate D2E/DX2                !
 ! A61   A(35,34,36)           109.4712         estimate D2E/DX2                !
 ! A62   A(35,34,37)           109.4712         estimate D2E/DX2                !
 ! A63   A(36,34,37)           109.4712         estimate D2E/DX2                !
 ! A64   L(26,28,29,22,-1)     181.6296         estimate D2E/DX2                !
 ! A65   L(26,28,29,22,-2)     181.1389         estimate D2E/DX2                !
 ! D1    D(5,1,2,3)             16.8959         estimate D2E/DX2                !
 ! D2    D(5,1,2,9)            -99.703          estimate D2E/DX2                !
 ! D3    D(5,1,2,17)           137.8171         estimate D2E/DX2                !
 ! D4    D(6,1,2,3)           -103.3739         estimate D2E/DX2                !
 ! D5    D(6,1,2,9)            140.0273         estimate D2E/DX2                !
 ! D6    D(6,1,2,17)            17.5474         estimate D2E/DX2                !
 ! D7    D(16,1,2,3)           134.2543         estimate D2E/DX2                !
 ! D8    D(16,1,2,9)            17.6555         estimate D2E/DX2                !
 ! D9    D(16,1,2,17)         -104.8244         estimate D2E/DX2                !
 ! D10   D(2,1,5,4)              8.4107         estimate D2E/DX2                !
 ! D11   D(6,1,5,4)            132.7325         estimate D2E/DX2                !
 ! D12   D(16,1,5,4)          -108.8298         estimate D2E/DX2                !
 ! D13   D(2,1,6,8)             55.2209         estimate D2E/DX2                !
 ! D14   D(2,1,6,13)           175.6097         estimate D2E/DX2                !
 ! D15   D(2,1,6,14)           -65.5409         estimate D2E/DX2                !
 ! D16   D(5,1,6,8)            -63.3297         estimate D2E/DX2                !
 ! D17   D(5,1,6,13)            57.0591         estimate D2E/DX2                !
 ! D18   D(5,1,6,14)           175.9085         estimate D2E/DX2                !
 ! D19   D(16,1,6,8)           177.8365         estimate D2E/DX2                !
 ! D20   D(16,1,6,13)          -61.7747         estimate D2E/DX2                !
 ! D21   D(16,1,6,14)           57.0747         estimate D2E/DX2                !
 ! D22   D(1,2,3,4)            -33.1328         estimate D2E/DX2                !
 ! D23   D(1,2,3,11)            87.3816         estimate D2E/DX2                !
 ! D24   D(1,2,3,19)          -150.7917         estimate D2E/DX2                !
 ! D25   D(9,2,3,4)             80.9243         estimate D2E/DX2                !
 ! D26   D(9,2,3,11)          -158.5613         estimate D2E/DX2                !
 ! D27   D(9,2,3,19)           -36.7346         estimate D2E/DX2                !
 ! D28   D(17,2,3,4)          -154.7304         estimate D2E/DX2                !
 ! D29   D(17,2,3,11)          -34.216          estimate D2E/DX2                !
 ! D30   D(17,2,3,19)           87.6106         estimate D2E/DX2                !
 ! D31   D(1,2,9,18)          -176.9998         estimate D2E/DX2                !
 ! D32   D(3,2,9,18)            70.9468         estimate D2E/DX2                !
 ! D33   D(17,2,9,18)          -53.635          estimate D2E/DX2                !
 ! D34   D(2,3,4,5)             38.9479         estimate D2E/DX2                !
 ! D35   D(2,3,4,7)            157.3035         estimate D2E/DX2                !
 ! D36   D(2,3,4,10)           -79.8593         estimate D2E/DX2                !
 ! D37   D(11,3,4,5)           -81.4755         estimate D2E/DX2                !
 ! D38   D(11,3,4,7)            36.88           estimate D2E/DX2                !
 ! D39   D(11,3,4,10)          159.7173         estimate D2E/DX2                !
 ! D40   D(19,3,4,5)           157.194          estimate D2E/DX2                !
 ! D41   D(19,3,4,7)           -84.4505         estimate D2E/DX2                !
 ! D42   D(19,3,4,10)           38.3868         estimate D2E/DX2                !
 ! D43   D(2,3,11,20)          -40.7845         estimate D2E/DX2                !
 ! D44   D(4,3,11,20)           72.2502         estimate D2E/DX2                !
 ! D45   D(19,3,11,20)        -164.7331         estimate D2E/DX2                !
 ! D46   D(3,4,5,1)            -30.308          estimate D2E/DX2                !
 ! D47   D(7,4,5,1)           -153.234          estimate D2E/DX2                !
 ! D48   D(10,4,5,1)            88.1301         estimate D2E/DX2                !
 ! D49   D(3,4,7,12)          -173.5923         estimate D2E/DX2                !
 ! D50   D(3,4,7,22)            68.1803         estimate D2E/DX2                !
 ! D51   D(3,4,7,23)           -52.0541         estimate D2E/DX2                !
 ! D52   D(5,4,7,12)           -57.3788         estimate D2E/DX2                !
 ! D53   D(5,4,7,22)          -175.6062         estimate D2E/DX2                !
 ! D54   D(5,4,7,23)            64.1594         estimate D2E/DX2                !
 ! D55   D(10,4,7,12)           62.6687         estimate D2E/DX2                !
 ! D56   D(10,4,7,22)          -55.5587         estimate D2E/DX2                !
 ! D57   D(10,4,7,23)         -175.7931         estimate D2E/DX2                !
 ! D58   D(3,4,10,21)           44.6728         estimate D2E/DX2                !
 ! D59   D(5,4,10,21)          -70.2213         estimate D2E/DX2                !
 ! D60   D(7,4,10,21)          171.296          estimate D2E/DX2                !
 ! D61   D(1,6,8,15)          -172.5905         estimate D2E/DX2                !
 ! D62   D(13,6,8,15)           67.6934         estimate D2E/DX2                !
 ! D63   D(14,6,8,15)          -53.1883         estimate D2E/DX2                !
 ! D64   D(4,7,12,24)           65.9768         estimate D2E/DX2                !
 ! D65   D(4,7,12,27)          -63.2087         estimate D2E/DX2                !
 ! D66   D(22,7,12,24)        -174.1397         estimate D2E/DX2                !
 ! D67   D(22,7,12,27)          56.6748         estimate D2E/DX2                !
 ! D68   D(23,7,12,24)         -55.5092         estimate D2E/DX2                !
 ! D69   D(23,7,12,27)         175.3052         estimate D2E/DX2                !
 ! D70   D(7,12,27,26)          27.7691         estimate D2E/DX2                !
 ! D71   D(24,12,27,26)        -98.9248         estimate D2E/DX2                !
 ! D72   D(25,26,27,12)          3.3187         estimate D2E/DX2                !
 ! D73   D(28,26,27,12)       -114.0842         estimate D2E/DX2                !
 ! D74   D(25,26,29,30)        -17.307          estimate D2E/DX2                !
 ! D75   D(25,26,29,31)        109.227          estimate D2E/DX2                !
 ! D76   D(27,26,29,30)         95.2958         estimate D2E/DX2                !
 ! D77   D(27,26,29,31)       -138.1702         estimate D2E/DX2                !
 ! D78   D(28,29,31,32)       -177.3773         estimate D2E/DX2                !
 ! D79   D(28,29,31,33)        -59.1984         estimate D2E/DX2                !
 ! D80   D(28,29,31,34)         61.6266         estimate D2E/DX2                !
 ! D81   D(30,29,31,32)        -50.0344         estimate D2E/DX2                !
 ! D82   D(30,29,31,33)         68.1446         estimate D2E/DX2                !
 ! D83   D(30,29,31,34)       -171.0305         estimate D2E/DX2                !
 ! D84   D(29,31,34,35)         65.7525         estimate D2E/DX2                !
 ! D85   D(29,31,34,36)        -54.2475         estimate D2E/DX2                !
 ! D86   D(29,31,34,37)       -174.2475         estimate D2E/DX2                !
 ! D87   D(32,31,34,35)        -52.5808         estimate D2E/DX2                !
 ! D88   D(32,31,34,36)       -172.5808         estimate D2E/DX2                !
 ! D89   D(32,31,34,37)         67.4192         estimate D2E/DX2                !
 ! D90   D(33,31,34,35)       -174.7044         estimate D2E/DX2                !
 ! D91   D(33,31,34,36)         65.2956         estimate D2E/DX2                !
 ! D92   D(33,31,34,37)        -54.7044         estimate D2E/DX2                !
 --------------------------------------------------------------------------------
 Trust Radius=3.00D-01 FncErr=1.00D-07 GrdErr=1.00D-06 EigMax=2.50D+02 EigMin=1.00D-04
 Number of steps in this run=    204 maximum allowed number of steps=    222.
 GradGradGradGradGradGradGradGradGradGradGradGradGradGradGradGradGradGrad

                          Input orientation:                          
 ---------------------------------------------------------------------
 Center     Atomic      Atomic             Coordinates (Angstroms)
 Number     Number       Type             X           Y           Z
 ---------------------------------------------------------------------
      1          6           0        3.394244    0.313796   -1.206969
      2          6           0        3.622266    1.249394   -0.007228
      3          6           0        2.828800    0.583055    1.129229
      4          6           0        1.659724   -0.029960    0.330629
      5          8           0        2.255869   -0.500820   -0.857776
      6          6           0        4.555377   -0.589812   -1.547268
      7          6           0        0.963969   -1.197449    1.005891
      8          8           0        4.906444   -1.336948   -0.387186
      9          8           0        3.041250    2.505304   -0.348010
     10          8           0        0.690224    0.964673    0.044056
     11          8           0        3.579573   -0.378546    1.828025
     12          8           0       -0.006028   -1.803452    0.147604
     13          1           0        4.262422   -1.262989   -2.358250
     14          1           0        5.394050    0.027872   -1.881891
     15          1           0        5.716269   -1.832571   -0.550524
     16          1           0        3.150514    0.914901   -2.087140
     17          1           0        4.678842    1.357717    0.247808
     18          1           0        3.209503    3.130825    0.367914
     19          1           0        2.465794    1.315106    1.851345
     20          1           0        4.105808   -0.891977    1.188598
     21          1           0        1.141800    1.769127   -0.260503
     22          1           0        0.428615   -0.844435    1.887828
     23          1           0        1.704048   -1.939654    1.300975
     24          1           0        0.443761   -2.211703   -0.604968
     25          1           0       -1.082743    0.667698   -0.387116
     26          8           0       -1.741224   -0.057507   -0.459708
     27          1           0       -1.168494   -0.873569   -0.241994
     28          1           0       -2.516201    0.076137    0.253463
     29          8           0       -3.574480    0.237410    1.166017
     30          1           0       -3.344869    0.854652    1.873371
     31          6           0       -4.845709    0.607700    0.583034
     32          1           0       -5.556715    0.743916    1.399115
     33          1           0       -4.730194    1.555304    0.047695
     34          6           0       -5.271697   -0.500331   -0.357275
     35          1           0       -5.466139   -1.389906    0.204640
     36          1           0       -4.490564   -0.688429   -1.063923
     37          1           0       -6.159372   -0.205542   -0.876922
 ---------------------------------------------------------------------
                    Distance matrix (angstroms):
                    1          2          3          4          5
     1  C    0.000000
     2  C    1.538414   0.000000
     3  C    2.418687   1.537898   0.000000
     4  C    2.343275   2.366953   1.542818   0.000000
     5  O    1.442717   2.377756   2.334786   1.410462   0.000000
     6  C    1.510146   2.573927   3.394160   3.496389   2.402302
     7  C    3.617575   3.752332   2.581279   1.517592   2.372246
     8  O    2.384061   2.912498   3.209756   3.572767   2.818885
     9  O    2.380152   1.425139   2.433600   2.965928   3.148566
    10  O    3.049660   2.946280   2.428320   1.418220   2.326417
    11  O    3.118473   2.453602   1.405935   2.459579   2.996777
    12  O    4.228411   4.744298   3.833439   2.439980   2.797109
    13  H    2.136687   3.499882   4.198293   3.940110   2.618889
    14  H    2.129905   2.854067   3.994444   4.340942   3.343128
    15  H    3.229491   3.765439   4.122414   4.525637   3.720529
    16  H    1.093358   2.158812   3.249408   2.993464   2.077496
    17  H    2.203710   1.092305   2.190813   3.323790   3.247657
    18  H    3.232652   1.962368   2.686199   3.520478   3.949757
    19  H    3.349317   2.189986   1.090469   2.184383   3.268179
    20  H    2.774699   2.499856   1.951920   2.731760   2.786203
    21  H    2.843816   2.546955   2.486783   1.963262   2.598181
    22  H    4.440070   4.263187   2.893802   2.145663   3.315912
    23  H    3.771549   3.944741   2.767422   2.142538   2.652349
    24  H    3.930127   4.737022   4.062822   2.667191   2.504949
    25  H    4.565174   4.756027   4.196026   2.919419   3.568373
    26  O    5.202816   5.538931   4.880590   3.491681   4.041254
    27  H    4.812441   5.245328   4.469940   3.006392   3.499199
    28  H    6.092840   6.255019   5.439942   4.177985   4.933597
    29  O    7.362066   7.361642   6.412708   5.307189   6.215601
    30  H    7.429446   7.227271   6.224283   5.311171   6.376891
    31  C    8.437258   8.512742   7.693960   6.541481   7.330563
    32  H    9.332542   9.299839   8.391399   7.336044   8.226749
    33  H    8.313965   8.358241   7.697621   6.589701   7.338433
    34  C    8.745474   9.071199   8.306712   6.981336   7.544187
    35  H    9.132449   9.466250   8.576331   7.255567   7.845292
    36  H    7.949536   8.407721   7.745946   6.340694   6.752189
    37  H    9.573412   9.927419   9.243038   7.913739   8.420441
                    6          7          8          9         10
     6  C    0.000000
     7  C    4.448152   0.000000
     8  O    1.423815   4.183686   0.000000
     9  O    3.648362   4.456290   4.271227   0.000000
    10  O    4.459612   2.382191   4.822856   2.838060   0.000000
    11  O    3.519862   2.861449   2.754320   3.652603   3.651728
    12  O    5.015170   1.429962   4.963467   5.300652   2.856222
    13  H    1.093929   4.711850   2.074928   4.442112   4.847077
    14  H    1.094019   5.428288   2.081979   3.745147   5.168447
    15  H    1.971197   5.040849   0.963399   5.100382   5.782666
    16  H    2.128207   4.337032   3.323245   2.359215   3.255380
    17  H    2.651492   4.572072   2.777812   2.086543   4.013113
    18  H    4.395730   4.917661   4.838469   0.965470   3.338243
    19  H    4.421045   3.046835   4.242780   2.566103   2.557684
    20  H    2.788974   3.161937   1.822666   3.877624   4.052572
    21  H    4.344291   3.230472   4.882243   2.039001   0.971506
    22  H    5.375396   1.090429   5.046703   4.800582   2.596306
    23  H    4.250252   1.088880   3.669943   4.925943   3.323071
    24  H    4.519275   1.973371   4.552819   5.391023   3.251360
    25  H    5.892001   3.099721   6.315771   4.515046   1.848652
    26  O    6.411967   3.281085   6.770060   5.427019   2.685250
    27  H    5.877666   2.491890   6.094315   5.399071   2.629789
    28  H    7.327574   3.781501   7.583067   6.094906   3.333843
    29  O    8.610504   4.762560   8.764537   7.155662   4.469386
    30  H    8.729326   4.850745   8.831613   6.960007   4.431757
    31  C    9.713529   6.098338   9.991370   8.165284   5.573552
    32  H   10.616704   6.814899  10.816587   8.948739   6.396027
    33  H    9.662673   6.396818  10.070702   7.839287   5.452503
    34  C    9.899266   6.420882  10.212511   8.839628   6.152382
    35  H   10.204906   6.482695  10.389588   9.373033   6.593226
    36  H    9.059382   5.856207   9.443639   8.212228   5.549859
    37  H   10.742572   7.434436  11.134280   9.606241   7.009605
                   11         12         13         14         15
    11  O    0.000000
    12  O    4.208409   0.000000
    13  H    4.332831   4.979063   0.000000
    14  H    4.149817   6.052556   1.781522   0.000000
    15  H    3.512428   5.764800   2.388717   2.310327   0.000000
    16  H    4.145553   4.727291   2.460294   2.421240   4.061144
    17  H    2.592313   5.652525   3.719280   2.610676   3.448409
    18  H    3.818974   5.893663   5.276951   4.411597   5.635841
    19  H    2.027191   4.328746   5.253107   4.916168   5.122737
    20  H    0.974372   4.338393   3.569637   3.454503   2.550068
    21  H    3.862277   3.774570   4.830378   4.872627   5.829417
    22  H    3.185775   2.033964   5.736065   6.295018   5.906036
    23  H    2.496484   2.067166   4.515870   5.255274   4.420117
    24  H    4.371869   0.967132   4.307694   5.581361   5.286402
    25  H    5.266751   2.748058   6.015290   6.677767   7.246007
    26  O    5.800661   2.535361   6.411038   7.276127   7.666375
    27  H    5.203284   1.538765   5.841664   6.824137   6.958077
    28  H    6.312245   3.137679   7.386747   8.193542   8.489000
    29  O    7.210973   4.235107   8.722883   9.474607   9.672091
    30  H    7.033543   4.603439   8.958900   9.547474   9.757082
    31  C    8.573684   5.424552   9.752368  10.548209  10.899324
    32  H    9.214968   6.234219  10.703313  11.454125  11.726873
    33  H    8.715594   5.797324   9.726175  10.419053  10.998370
    34  C    9.117859   5.447963   9.771641  10.787104  11.070122
    35  H    9.245709   5.476047  10.061283  11.149323  11.216616
    36  H    8.578258   4.777252   8.866802   9.944233  10.283583
    37  H   10.109091   6.439457  10.579523  11.599396  11.991022
                   16         17         18         19         20
    16  H    0.000000
    17  H    2.825572   0.000000
    18  H    3.307732   2.305926   0.000000
    19  H    4.017545   2.733263   2.459778   0.000000
    20  H    3.861069   2.504911   4.202359   2.828444   0.000000
    21  H    2.846267   3.596985   2.554315   2.533574   4.238716
    22  H    5.128778   5.059997   5.083913   2.969014   3.743385
    23  H    4.660480   4.564123   5.370918   3.387717   2.622729
    24  H    4.393063   5.603918   6.094131   4.749787   4.285924
    25  H    4.568551   5.837390   5.006040   4.245228   5.642386
    26  O    5.246257   6.612162   5.946437   4.992398   6.131968
    27  H    5.025636   6.277729   5.964396   4.730794   5.464906
    28  H    6.188183   7.308291   6.490601   5.376667   6.757420
    29  O    7.501171   8.379470   7.418305   6.173817   7.762915
    30  H    7.607843   8.202162   7.099800   5.828920   7.683242
    31  C    8.435863   9.559915   8.443866   7.454335   9.096450
    32  H    9.380781  10.318376   9.143702   8.055521   9.802286
    33  H    8.189823   9.413238   8.100839   7.422472   9.239360
    34  C    8.713722  10.140596   9.254293   8.248793   9.512135
    35  H    9.209294  10.510563   9.784193   8.540743   9.635262
    36  H    7.874244   9.486062   8.713661   7.804092   8.888920
    37  H    9.454839  11.007982  10.022813   9.173292  10.493402
                   21         22         23         24         25
    21  H    0.000000
    22  H    3.457552   0.000000
    23  H    4.063175   1.780626   0.000000
    24  H    4.056220   2.843182   2.301076   0.000000
    25  H    2.485512   3.121878   4.173025   3.266286   0.000000
    26  O    3.418787   3.292170   4.302602   3.071778   0.982237
    27  H    3.510220   2.662282   3.430567   2.126433   1.550457
    28  H    4.063416   3.491496   4.792828   3.838293   1.677822
    29  O    5.159885   4.209058   5.711452   5.028002   2.967511
    30  H    5.051721   4.138392   5.798909   5.467944   3.203431
    31  C    6.157169   5.624027   7.064260   6.110554   3.886477
    32  H    6.976782   6.211753   7.741438   6.982675   4.817972
    33  H    5.883963   5.979812   7.428655   6.433205   3.778995
    34  C    6.803877   6.136159   7.313170   5.971315   4.348852
    35  H    7.338985   6.154574   7.274322   6.021439   4.878327
    36  H    6.197467   5.738945   6.747705   5.184454   3.729664
    37  H    7.588570   7.173116   8.341687   6.906519   5.174419
                   26         27         28         29         30
    26  O    0.000000
    27  H    1.020478   0.000000
    28  H    1.061632   1.721550   0.000000
    29  O    2.467952   3.000923   1.406669   0.000000
    30  H    2.974385   3.492581   1.979110   0.966467   0.000000
    31  C    3.341802   4.049289   2.412008   1.446723   1.994612
    32  H    4.319198   4.956408   3.317103   2.059160   2.264828
    33  H    3.434030   4.320770   2.670588   2.079222   2.396483
    34  C    3.559610   4.121756   2.880638   2.396920   3.244137
    35  H    4.011438   4.351533   3.294511   2.674094   3.510340
    36  H    2.884789   3.427243   2.493627   2.582444   3.510187
    37  H    4.440271   5.075259   3.824893   3.324375   4.075482
                   31         32         33         34         35
    31  C    0.000000
    32  H    1.090904   0.000000
    33  H    1.094479   1.779838   0.000000
    34  C    1.514391   2.171242   2.163992   0.000000
    35  H    2.125687   2.447074   3.039820   1.070000   0.000000
    36  H    2.125687   3.042178   2.515443   1.070000   1.747303
    37  H    2.125687   2.538703   2.449091   1.070000   1.747303
                   36         37
    36  H    0.000000
    37  H    1.747303   0.000000
 Stoichiometry    C8H21O8(1+)
 Framework group  C1[X(C8H21O8)]
 Deg. of freedom   105
 Full point group                 C1      NOp   1
 Largest Abelian subgroup         C1      NOp   1
 Largest concise Abelian subgroup C1      NOp   1
                         Standard orientation:                         
 ---------------------------------------------------------------------
 Center     Atomic      Atomic             Coordinates (Angstroms)
 Number     Number       Type             X           Y           Z
 ---------------------------------------------------------------------
      1          6           0        2.596800    0.224161   -1.121579
      2          6           0        2.746914    1.245047    0.019461
      3          6           0        1.876518    0.662195    1.145439
      4          6           0        0.761643   -0.009064    0.316733
      5          8           0        1.434688   -0.564452   -0.791401
      6          6           0        3.775022   -0.700198   -1.316246
      7          6           0        0.017993   -1.125213    1.026860
      8          8           0        4.044693   -1.360283   -0.083843
      9          8           0        2.194512    2.471948   -0.450207
     10          8           0       -0.182918    0.960654   -0.106114
     11          8           0        2.575251   -0.244842    1.961349
     12          8           0       -0.894217   -1.793546    0.151650
     13          1           0        3.534903   -1.431116   -2.093924
     14          1           0        4.636446   -0.107357   -1.637755
     15          1           0        4.861931   -1.865342   -0.155777
     16          1           0        2.414895    0.759160   -2.057591
     17          1           0        3.784325    1.373175    0.336465
     18          1           0        2.316436    3.148230    0.227959
     19          1           0        1.468344    1.444419    1.786252
     20          1           0        3.141488   -0.802769    1.397882
     21          1           0        0.290917    1.741408   -0.437362
     22          1           0       -0.574206   -0.709611    1.842710
     23          1           0        0.733963   -1.842880    1.424352
     24          1           0       -0.396279   -2.254929   -0.537209
     25          1           0       -1.923913    0.630519   -0.632863
     26          8           0       -2.578552   -0.098984   -0.696603
     27          1           0       -2.024607   -0.896190   -0.381986
     28          1           0       -3.399250    0.085189   -0.048840
     29          8           0       -4.515916    0.311048    0.776244
     30          1           0       -4.332225    0.978536    1.450615
     31          6           0       -5.743774    0.636049    0.083608
     32          1           0       -6.507556    0.830379    0.837893
     33          1           0       -5.589222    1.542272   -0.510326
     34          6           0       -6.109448   -0.538182   -0.800045
     35          1           0       -6.344332   -1.384705   -0.189204
     36          1           0       -5.283237   -0.776180   -1.436938
     37          1           0       -6.959144   -0.283319   -1.398344
 ---------------------------------------------------------------------
 Rotational constants (GHZ):           1.0261077           0.1884678           0.1817062
 Standard basis: 6-311++G(d,p) (5D, 7F)
 There are   515 symmetry adapted cartesian basis functions of A   symmetry.
 There are   499 symmetry adapted basis functions of A   symmetry.
   499 basis functions,   765 primitive gaussians,   515 cartesian basis functions
    66 alpha electrons       66 beta electrons
       nuclear repulsion energy      1321.0144830171 Hartrees.
 NAtoms=   37 NActive=   37 NUniq=   37 SFac= 1.00D+00 NAtFMM=   60 NAOKFM=F Big=F
 Integral buffers will be    131072 words long.
 Raffenetti 2 integral format.
 Two-electron integral symmetry is turned on.
 ------------------------------------------------------------------------------
 Polarizable Continuum Model (PCM)
 =================================
 Model                : PCM.
 Atomic radii         : SMD-Coulomb.
 Polarization charges : Total charges.
 Charge compensation  : None.
 Solution method      : On-the-fly selection.
 Cavity type          : VdW (van der Waals Surface) (Alpha=1.000).
 Cavity algorithm     : GePol (No added spheres)
                        Default sphere list used, NSphG=   37.
                        Lebedev-Laikov grids with approx.  5.0 points / Ang**2.
                        Smoothing algorithm: York/Karplus (Gamma=1.0000).
                        Polarization charges: spherical gaussians, with
                                              point-specific exponents (IZeta= 3).
                        Self-potential: point-specific (ISelfS= 7).
                        Self-field    : sphere-specific E.n sum rule (ISelfD= 2).
 1st derivatives      : Analytical E(r).r(x)/FMM algorithm (CHGder, D1EAlg=3).
                        Cavity 1st derivative terms included.
 Solvent              : Ethanol, Eps=  24.852000 Eps(inf)=   1.852593
 ------------------------------------------------------------------------------
 ------------------------------------------------------------------------------
 Atomic radii for non-electrostatic terms: SMD-CDS.
 ------------------------------------------------------------------------------
 Nuclear repulsion after PCM non-electrostatic terms =     1321.0171889569 Hartrees.
 One-electron integrals computed using PRISM.
 NBasis=   499 RedAO= T EigKep=  2.08D-06  NBF=   499
 NBsUse=   499 1.00D-06 EigRej= -1.00D+00 NBFU=   499
 ExpMin= 3.60D-02 ExpMax= 8.59D+03 ExpMxC= 1.30D+03 IAcc=3 IRadAn=         5 AccDes= 0.00D+00
 Harris functional with IExCor= 1009 and IRadAn=       5 diagonalized for initial guess.
 HarFok:  IExCor= 1009 AccDes= 0.00D+00 IRadAn=         5 IDoV= 1 UseB2=F ITyADJ=14
 ICtDFT=  3500011 ScaDFX=  1.000000  1.000000  1.000000  1.000000
 FoFCou: FMM=F IPFlag=           0 FMFlag=      100000 FMFlg1=           0
         NFxFlg=           0 DoJE=T BraDBF=F KetDBF=T FulRan=T
         wScrn=  0.000000 ICntrl=       500 IOpCl=  0 I1Cent=   200000004 NGrid=           0
         NMat0=    1 NMatS0=      1 NMatT0=    0 NMatD0=    1 NMtDS0=    0 NMtDT0=    0
 Petite list used in FoFCou.
 Requested convergence on RMS density matrix=1.00D-08 within 400 cycles.
 Requested convergence on MAX density matrix=1.00D-06.
 Requested convergence on             energy=1.00D-06.
 No special actions if energy rises.
 Inv3:  Mode=1 IEnd=    16175052.
 Iteration    1 A*A^-1 deviation from unit magnitude is 3.22D-15 for   1523.
 Iteration    1 A*A^-1 deviation from orthogonality  is 2.57D-15 for   1872    403.
 Iteration    1 A^-1*A deviation from unit magnitude is 3.22D-15 for    177.
 Iteration    1 A^-1*A deviation from orthogonality  is 2.09D-15 for   1975   1276.
 Error on total polarization charges =  0.05378
 SCF Done:  E(RM062X) =  -919.085490681     A.U. after   13 cycles
            NFock= 13  Conv=0.28D-08     -V/T= 2.0035
 SMD-CDS (non-electrostatic) energy       (kcal/mol) =       1.70
 (included in total energy above)
 QCSCF skips out because SCF is already converged.

 **********************************************************************

            Population analysis using the SCF Density.

 **********************************************************************

 Orbital symmetries:
       Occupied  (A) (A) (A) (A) (A) (A) (A) (A) (A) (A) (A) (A)
                 (A) (A) (A) (A) (A) (A) (A) (A) (A) (A) (A) (A)
                 (A) (A) (A) (A) (A) (A) (A) (A) (A) (A) (A) (A)
                 (A) (A) (A) (A) (A) (A) (A) (A) (A) (A) (A) (A)
                 (A) (A) (A) (A) (A) (A) (A) (A) (A) (A) (A) (A)
                 (A) (A) (A) (A) (A) (A)
       Virtual   (A) (A) (A) (A) (A) (A) (A) (A) (A) (A) (A) (A)
                 (A) (A) (A) (A) (A) (A) (A) (A) (A) (A) (A) (A)
                 (A) (A) (A) (A) (A) (A) (A) (A) (A) (A) (A) (A)
                 (A) (A) (A) (A) (A) (A) (A) (A) (A) (A) (A) (A)
                 (A) (A) (A) (A) (A) (A) (A) (A) (A) (A) (A) (A)
                 (A) (A) (A) (A) (A) (A) (A) (A) (A) (A) (A) (A)
                 (A) (A) (A) (A) (A) (A) (A) (A) (A) (A) (A) (A)
                 (A) (A) (A) (A) (A) (A) (A) (A) (A) (A) (A) (A)
                 (A) (A) (A) (A) (A) (A) (A) (A) (A) (A) (A) (A)
                 (A) (A) (A) (A) (A) (A) (A) (A) (A) (A) (A) (A)
                 (A) (A) (A) (A) (A) (A) (A) (A) (A) (A) (A) (A)
                 (A) (A) (A) (A) (A) (A) (A) (A) (A) (A) (A) (A)
                 (A) (A) (A) (A) (A) (A) (A) (A) (A) (A) (A) (A)
                 (A) (A) (A) (A) (A) (A) (A) (A) (A) (A) (A) (A)
                 (A) (A) (A) (A) (A) (A) (A) (A) (A) (A) (A) (A)
                 (A) (A) (A) (A) (A) (A) (A) (A) (A) (A) (A) (A)
                 (A) (A) (A) (A) (A) (A) (A) (A) (A) (A) (A) (A)
                 (A) (A) (A) (A) (A) (A) (A) (A) (A) (A) (A) (A)
                 (A) (A) (A) (A) (A) (A) (A) (A) (A) (A) (A) (A)
                 (A) (A) (A) (A) (A) (A) (A) (A) (A) (A) (A) (A)
                 (A) (A) (A) (A) (A) (A) (A) (A) (A) (A) (A) (A)
                 (A) (A) (A) (A) (A) (A) (A) (A) (A) (A) (A) (A)
                 (A) (A) (A) (A) (A) (A) (A) (A) (A) (A) (A) (A)
                 (A) (A) (A) (A) (A) (A) (A) (A) (A) (A) (A) (A)
                 (A) (A) (A) (A) (A) (A) (A) (A) (A) (A) (A) (A)
                 (A) (A) (A) (A) (A) (A) (A) (A) (A) (A) (A) (A)
                 (A) (A) (A) (A) (A) (A) (A) (A) (A) (A) (A) (A)
                 (A) (A) (A) (A) (A) (A) (A) (A) (A) (A) (A) (A)
                 (A) (A) (A) (A) (A) (A) (A) (A) (A) (A) (A) (A)
                 (A) (A) (A) (A) (A) (A) (A) (A) (A) (A) (A) (A)
                 (A) (A) (A) (A) (A) (A) (A) (A) (A) (A) (A) (A)
                 (A) (A) (A) (A) (A) (A) (A) (A) (A) (A) (A) (A)
                 (A) (A) (A) (A) (A) (A) (A) (A) (A) (A) (A) (A)
                 (A) (A) (A) (A) (A) (A) (A) (A) (A) (A) (A) (A)
                 (A) (A) (A) (A) (A) (A) (A) (A) (A) (A) (A) (A)
                 (A) (A) (A) (A) (A) (A) (A) (A) (A) (A) (A) (A)
                 (A)
 The electronic state is 1-A.
 Alpha  occ. eigenvalues --  -19.68950 -19.66497 -19.66362 -19.65015 -19.64882
 Alpha  occ. eigenvalues --  -19.64654 -19.64217 -19.63134 -10.66053 -10.60724
 Alpha  occ. eigenvalues --  -10.60426 -10.60417 -10.60144 -10.59369 -10.59286
 Alpha  occ. eigenvalues --  -10.52034  -1.23208  -1.21941  -1.18274  -1.17525
 Alpha  occ. eigenvalues --   -1.16858  -1.16665  -1.15529  -1.14525  -0.89467
 Alpha  occ. eigenvalues --   -0.87506  -0.86152  -0.81963  -0.75457  -0.72026
 Alpha  occ. eigenvalues --   -0.71168  -0.68548  -0.68215  -0.66239  -0.65035
 Alpha  occ. eigenvalues --   -0.63862  -0.62040  -0.61473  -0.60372  -0.59329
 Alpha  occ. eigenvalues --   -0.56595  -0.55329  -0.54922  -0.54084  -0.52884
 Alpha  occ. eigenvalues --   -0.52086  -0.50980  -0.50659  -0.49420  -0.49063
 Alpha  occ. eigenvalues --   -0.48296  -0.47280  -0.45955  -0.45375  -0.45100
 Alpha  occ. eigenvalues --   -0.43805  -0.43187  -0.42504  -0.42192  -0.40462
 Alpha  occ. eigenvalues --   -0.39287  -0.38583  -0.38230  -0.37238  -0.36201
 Alpha  occ. eigenvalues --   -0.33733
 Alpha virt. eigenvalues --   -0.00812   0.00180   0.00603   0.00905   0.01448
 Alpha virt. eigenvalues --    0.01766   0.02205   0.02962   0.03145   0.03439
 Alpha virt. eigenvalues --    0.03665   0.04085   0.05217   0.05671   0.05838
 Alpha virt. eigenvalues --    0.06098   0.06401   0.07323   0.07965   0.08080
 Alpha virt. eigenvalues --    0.08704   0.09118   0.09296   0.09682   0.10298
 Alpha virt. eigenvalues --    0.10826   0.10891   0.11837   0.12164   0.12184
 Alpha virt. eigenvalues --    0.12456   0.13040   0.13196   0.13316   0.13772
 Alpha virt. eigenvalues --    0.13868   0.14319   0.14675   0.14907   0.15329
 Alpha virt. eigenvalues --    0.15373   0.15661   0.15931   0.16237   0.16509
 Alpha virt. eigenvalues --    0.17163   0.17379   0.17593   0.17964   0.18829
 Alpha virt. eigenvalues --    0.19363   0.19580   0.20172   0.20542   0.21244
 Alpha virt. eigenvalues --    0.21355   0.22016   0.22411   0.22594   0.23090
 Alpha virt. eigenvalues --    0.23301   0.23593   0.24196   0.24707   0.24956
 Alpha virt. eigenvalues --    0.25124   0.25713   0.25963   0.26515   0.26854
 Alpha virt. eigenvalues --    0.27095   0.27687   0.28073   0.28160   0.28360
 Alpha virt. eigenvalues --    0.29292   0.29328   0.29583   0.30226   0.30734
 Alpha virt. eigenvalues --    0.31234   0.31505   0.31595   0.32694   0.32871
 Alpha virt. eigenvalues --    0.32923   0.33179   0.33843   0.34105   0.34667
 Alpha virt. eigenvalues --    0.34833   0.34932   0.35326   0.35855   0.35891
 Alpha virt. eigenvalues --    0.36463   0.36884   0.36991   0.37361   0.37461
 Alpha virt. eigenvalues --    0.38046   0.38351   0.39290   0.39501   0.40190
 Alpha virt. eigenvalues --    0.40444   0.40896   0.41271   0.41842   0.42183
 Alpha virt. eigenvalues --    0.42431   0.44735   0.45186   0.46923   0.47544
 Alpha virt. eigenvalues --    0.47598   0.49080   0.49932   0.50320   0.50849
 Alpha virt. eigenvalues --    0.52540   0.52940   0.55479   0.56038   0.57336
 Alpha virt. eigenvalues --    0.58111   0.58587   0.59707   0.60406   0.61500
 Alpha virt. eigenvalues --    0.61959   0.62956   0.63209   0.63840   0.64053
 Alpha virt. eigenvalues --    0.64841   0.66332   0.66852   0.67370   0.68406
 Alpha virt. eigenvalues --    0.69230   0.69665   0.70548   0.70800   0.71580
 Alpha virt. eigenvalues --    0.71875   0.73212   0.73397   0.73941   0.74299
 Alpha virt. eigenvalues --    0.74913   0.75626   0.75810   0.76627   0.78199
 Alpha virt. eigenvalues --    0.79749   0.80247   0.80867   0.82020   0.83084
 Alpha virt. eigenvalues --    0.83443   0.84270   0.85248   0.88279   0.89158
 Alpha virt. eigenvalues --    0.95448   0.96983   0.98214   1.00025   1.01316
 Alpha virt. eigenvalues --    1.02415   1.04728   1.06016   1.06644   1.07316
 Alpha virt. eigenvalues --    1.09183   1.09844   1.11480   1.13235   1.13368
 Alpha virt. eigenvalues --    1.14614   1.17589   1.18038   1.18428   1.19517
 Alpha virt. eigenvalues --    1.21089   1.21123   1.22087   1.22707   1.25053
 Alpha virt. eigenvalues --    1.25114   1.26590   1.27669   1.28219   1.28968
 Alpha virt. eigenvalues --    1.29401   1.30278   1.30854   1.32153   1.32551
 Alpha virt. eigenvalues --    1.34963   1.35967   1.37603   1.38357   1.40605
 Alpha virt. eigenvalues --    1.41328   1.42872   1.43360   1.44801   1.46698
 Alpha virt. eigenvalues --    1.47610   1.48577   1.51512   1.52209   1.53239
 Alpha virt. eigenvalues --    1.54298   1.54601   1.55910   1.56413   1.57475
 Alpha virt. eigenvalues --    1.58350   1.59158   1.60220   1.61042   1.61142
 Alpha virt. eigenvalues --    1.61800   1.61981   1.63321   1.63492   1.64332
 Alpha virt. eigenvalues --    1.65165   1.65783   1.66216   1.68144   1.68916
 Alpha virt. eigenvalues --    1.69900   1.70744   1.71307   1.71531   1.72450
 Alpha virt. eigenvalues --    1.72857   1.73993   1.75040   1.75898   1.77792
 Alpha virt. eigenvalues --    1.78048   1.78837   1.80318   1.80861   1.82260
 Alpha virt. eigenvalues --    1.83210   1.83441   1.84611   1.87628   1.87944
 Alpha virt. eigenvalues --    1.89180   1.89707   1.92383   1.93035   1.94349
 Alpha virt. eigenvalues --    1.94823   1.95893   1.98780   1.99993   2.01163
 Alpha virt. eigenvalues --    2.01736   2.02091   2.06008   2.06807   2.07579
 Alpha virt. eigenvalues --    2.08416   2.09310   2.09946   2.10336   2.13390
 Alpha virt. eigenvalues --    2.14015   2.15313   2.16389   2.18262   2.19970
 Alpha virt. eigenvalues --    2.21989   2.22458   2.23583   2.24991   2.26131
 Alpha virt. eigenvalues --    2.26510   2.28347   2.30085   2.34331   2.34509
 Alpha virt. eigenvalues --    2.36381   2.37455   2.39606   2.40035   2.45600
 Alpha virt. eigenvalues --    2.49820   2.51950   2.54883   2.55581   2.56421
 Alpha virt. eigenvalues --    2.57411   2.57884   2.58346   2.60480   2.61580
 Alpha virt. eigenvalues --    2.61810   2.63758   2.64240   2.65889   2.66351
 Alpha virt. eigenvalues --    2.68120   2.68834   2.69157   2.70499   2.72084
 Alpha virt. eigenvalues --    2.73395   2.76174   2.77237   2.79751   2.81817
 Alpha virt. eigenvalues --    2.84216   2.85294   2.86832   2.89019   2.89817
 Alpha virt. eigenvalues --    2.92038   2.92854   2.93726   2.95088   2.96148
 Alpha virt. eigenvalues --    2.98024   2.99338   2.99588   3.03185   3.05499
 Alpha virt. eigenvalues --    3.07409   3.09474   3.11048   3.14746   3.15851
 Alpha virt. eigenvalues --    3.17835   3.18175   3.20268   3.20837   3.22604
 Alpha virt. eigenvalues --    3.23422   3.25061   3.25398   3.26029   3.26389
 Alpha virt. eigenvalues --    3.28110   3.29421   3.30585   3.32116   3.32947
 Alpha virt. eigenvalues --    3.34576   3.36391   3.36440   3.37864   3.39330
 Alpha virt. eigenvalues --    3.41179   3.42642   3.44470   3.49231   3.54676
 Alpha virt. eigenvalues --    3.60754   3.64021   3.82017   3.85617   3.86270
 Alpha virt. eigenvalues --    3.86818   3.90037   3.91412   3.91632   3.92689
 Alpha virt. eigenvalues --    3.93905   3.95023   3.96685   3.98785   3.99665
 Alpha virt. eigenvalues --    4.00472   4.02617   4.04443   4.07056   4.07291
 Alpha virt. eigenvalues --    4.11572   4.17775   4.22292   4.25622   4.28720
 Alpha virt. eigenvalues --    4.30225   4.34833   4.43678   5.15981   5.18387
 Alpha virt. eigenvalues --    5.20516   5.23205   5.24450   5.26775   5.28906
 Alpha virt. eigenvalues --    5.32813   5.45760   5.49281   5.52311   5.53844
 Alpha virt. eigenvalues --    5.57195   5.58327   5.62178   5.70936   5.71187
 Alpha virt. eigenvalues --    5.72264   5.75841   5.77008   5.80594   5.81907
 Alpha virt. eigenvalues --    5.92993   5.93669  23.80102  23.87832  23.91733
 Alpha virt. eigenvalues --   23.92226  23.94113  23.95671  24.00203  24.11439
 Alpha virt. eigenvalues --   49.96844  50.01238  50.02206  50.03504  50.06391
 Alpha virt. eigenvalues --   50.08423  50.11502  50.13687
          Condensed to atoms (all electrons):
               1          2          3          4          5          6
     1  C   10.039438  -3.093977   2.044247  -2.873111   0.301564  -1.170781
     2  C   -3.093977  10.478412  -3.540668   2.659926  -0.200248   0.391676
     3  C    2.044247  -3.540668  11.942787  -5.092889   0.177182   0.064326
     4  C   -2.873111   2.659926  -5.092889  15.121589  -0.055244   0.223806
     5  O    0.301564  -0.200248   0.177182  -0.055244   8.171010  -0.100117
     6  C   -1.170781   0.391676   0.064326   0.223806  -0.100117   6.275612
     7  C    0.111438  -0.445316  -0.074270  -2.917197  -0.197483  -0.040759
     8  O    0.011042  -0.104816   0.136918  -0.110061   0.018517   0.115420
     9  O   -0.221224   0.452775  -0.124763  -0.133765   0.007509   0.012347
    10  O    0.027466   0.007614  -0.015286  -0.019925  -0.027283   0.005711
    11  O    0.012589  -0.162243   0.473456  -0.226243   0.004525  -0.002776
    12  O    0.000960  -0.025652   0.050099  -0.144671  -0.011348  -0.006231
    13  H   -0.076108  -0.011829   0.026950  -0.029046  -0.020884   0.456172
    14  H   -0.023639  -0.006919   0.007150  -0.019032   0.020956   0.431419
    15  H   -0.060007   0.013513  -0.000510   0.005779   0.002745   0.065613
    16  H    0.468513  -0.138592   0.038975  -0.012935  -0.032471  -0.068821
    17  H    0.050003   0.302562   0.057716  -0.138251  -0.003829  -0.043138
    18  H   -0.061806   0.100768  -0.094627   0.088302  -0.000822  -0.000794
    19  H    0.037062  -0.085848   0.459910  -0.085266   0.022255   0.013491
    20  H    0.075389   0.004786  -0.033209   0.049326   0.002556  -0.029637
    21  H    0.004896  -0.024868   0.004163   0.040497  -0.010285  -0.009627
    22  H   -0.010866  -0.013926  -0.011999  -0.055178   0.015436   0.005271
    23  H    0.029120  -0.018400  -0.021305  -0.084801  -0.022498  -0.020225
    24  H    0.007962  -0.003567  -0.007673   0.018835   0.013722  -0.000863
    25  H   -0.017228   0.012666  -0.043066  -0.007807  -0.005689   0.001169
    26  O    0.011244  -0.001742  -0.022415   0.213273  -0.000693  -0.000631
    27  H   -0.004022  -0.004000  -0.001302  -0.194883  -0.002335   0.001483
    28  H   -0.005868   0.003654   0.032504  -0.018531  -0.001300  -0.000194
    29  O    0.000143  -0.000217   0.001245   0.010874  -0.000009  -0.000006
    30  H    0.000071   0.000354  -0.002440  -0.001893   0.000014  -0.000042
    31  C    0.000438  -0.000441  -0.002900  -0.005520   0.000256   0.000034
    32  H    0.000029  -0.000021  -0.000005   0.000199   0.000006   0.000000
    33  H   -0.000011  -0.000008   0.000174  -0.000113  -0.000006  -0.000002
    34  C   -0.000118  -0.000028   0.000090   0.000072  -0.000036   0.000006
    35  H    0.000013   0.000025  -0.000014   0.000611   0.000010   0.000001
    36  H    0.000217  -0.000039   0.000354   0.001942   0.000024  -0.000046
    37  H   -0.000006  -0.000008  -0.000050  -0.000309  -0.000000   0.000001
               7          8          9         10         11         12
     1  C    0.111438   0.011042  -0.221224   0.027466   0.012589   0.000960
     2  C   -0.445316  -0.104816   0.452775   0.007614  -0.162243  -0.025652
     3  C   -0.074270   0.136918  -0.124763  -0.015286   0.473456   0.050099
     4  C   -2.917197  -0.110061  -0.133765  -0.019925  -0.226243  -0.144671
     5  O   -0.197483   0.018517   0.007509  -0.027283   0.004525  -0.011348
     6  C   -0.040759   0.115420   0.012347   0.005711  -0.002776  -0.006231
     7  C    9.425534  -0.001354   0.040964  -0.181659  -0.028059   0.094428
     8  O   -0.001354   8.280435   0.003990   0.002726  -0.015615  -0.001217
     9  O    0.040964   0.003990   8.003006   0.018052   0.021565   0.000012
    10  O   -0.181659   0.002726   0.018052   8.195566   0.024665   0.027079
    11  O   -0.028059  -0.015615   0.021565   0.024665   7.903919   0.000588
    12  O    0.094428  -0.001217   0.000012   0.027079   0.000588   8.155392
    13  H   -0.004055  -0.052943  -0.001736   0.002039   0.001698   0.000863
    14  H    0.004372  -0.068899  -0.001851  -0.001371  -0.000568  -0.000489
    15  H   -0.001012   0.210613   0.000022  -0.000061   0.001446   0.000003
    16  H    0.002840   0.010155  -0.004645   0.000598  -0.001625  -0.000844
    17  H    0.004742   0.007274  -0.002826   0.003273  -0.004352   0.000495
    18  H    0.014764   0.000180   0.281144  -0.008017   0.002927  -0.000149
    19  H   -0.103503   0.000424  -0.024757   0.014781  -0.059648  -0.003851
    20  H   -0.048310  -0.030480  -0.001404  -0.001749   0.287569  -0.000915
    21  H    0.004039   0.000518  -0.009795   0.234894  -0.000570   0.006134
    22  H    0.443676   0.001518  -0.000594  -0.005740  -0.012630  -0.067347
    23  H    0.430200  -0.001286   0.000610   0.012921   0.030923   0.001507
    24  H   -0.012049   0.000043  -0.000272  -0.006498  -0.000543   0.263083
    25  H    0.043164  -0.000166  -0.000705   0.006773  -0.001101  -0.002533
    26  O   -0.181236  -0.000044   0.001487  -0.008874  -0.000208  -0.026381
    27  H    0.197736  -0.000078  -0.000291   0.006631  -0.000400   0.021264
    28  H    0.014860   0.000005  -0.000361   0.007096   0.000746   0.023745
    29  O   -0.003195  -0.000000   0.000015  -0.002989   0.000002  -0.002720
    30  H    0.004771  -0.000003   0.000042  -0.000735  -0.000003  -0.000657
    31  C    0.004409   0.000001  -0.000017  -0.001351   0.000000  -0.001273
    32  H    0.000101   0.000000  -0.000001  -0.000136   0.000001  -0.000014
    33  H    0.000088  -0.000000   0.000007   0.000156  -0.000002  -0.000022
    34  C   -0.003213   0.000000   0.000000   0.000944  -0.000007  -0.000623
    35  H   -0.000627  -0.000000   0.000001  -0.000019   0.000000   0.000171
    36  H    0.000617  -0.000000   0.000008  -0.000476   0.000002  -0.001579
    37  H    0.000180   0.000000  -0.000000   0.000028  -0.000000  -0.000192
              13         14         15         16         17         18
     1  C   -0.076108  -0.023639  -0.060007   0.468513   0.050003  -0.061806
     2  C   -0.011829  -0.006919   0.013513  -0.138592   0.302562   0.100768
     3  C    0.026950   0.007150  -0.000510   0.038975   0.057716  -0.094627
     4  C   -0.029046  -0.019032   0.005779  -0.012935  -0.138251   0.088302
     5  O   -0.020884   0.020956   0.002745  -0.032471  -0.003829  -0.000822
     6  C    0.456172   0.431419   0.065613  -0.068821  -0.043138  -0.000794
     7  C   -0.004055   0.004372  -0.001012   0.002840   0.004742   0.014764
     8  O   -0.052943  -0.068899   0.210613   0.010155   0.007274   0.000180
     9  O   -0.001736  -0.001851   0.000022  -0.004645  -0.002826   0.281144
    10  O    0.002039  -0.001371  -0.000061   0.000598   0.003273  -0.008017
    11  O    0.001698  -0.000568   0.001446  -0.001625  -0.004352   0.002927
    12  O    0.000863  -0.000489   0.000003  -0.000844   0.000495  -0.000149
    13  H    0.542291  -0.052439   0.003049  -0.004980   0.004077  -0.000783
    14  H   -0.052439   0.521986  -0.008970  -0.004966  -0.012046   0.000927
    15  H    0.003049  -0.008970   0.392081  -0.001218  -0.002451  -0.000130
    16  H   -0.004980  -0.004966  -0.001218   0.421788   0.006490   0.000088
    17  H    0.004077  -0.012046  -0.002451   0.006490   0.473041  -0.021991
    18  H   -0.000783   0.000927  -0.000130   0.000088  -0.021991   0.383744
    19  H    0.001221  -0.000798   0.000353   0.003952  -0.005933  -0.007930
    20  H   -0.005237   0.003062   0.001710   0.001526  -0.012256   0.001611
    21  H   -0.000485   0.000277  -0.000039   0.007314   0.004057  -0.007712
    22  H    0.000046   0.000320   0.000143  -0.000836  -0.002505   0.001009
    23  H    0.000589  -0.001020  -0.001591   0.001322   0.004913  -0.000755
    24  H   -0.000993   0.000123   0.000079   0.000251  -0.000327   0.000023
    25  H   -0.000274   0.000204   0.000025   0.000855  -0.000069   0.000057
    26  O    0.000062  -0.000037   0.000004  -0.000954  -0.000339   0.000290
    27  H    0.000321   0.000163  -0.000004   0.000798  -0.000086   0.000019
    28  H    0.000103  -0.000135  -0.000004  -0.000128   0.000345  -0.000301
    29  O    0.000000   0.000000  -0.000000   0.000016  -0.000003   0.000003
    30  H   -0.000004   0.000001   0.000000   0.000019   0.000010   0.000014
    31  C   -0.000006   0.000005  -0.000000   0.000049  -0.000015   0.000007
    32  H   -0.000000   0.000000  -0.000000   0.000002   0.000000   0.000001
    33  H    0.000001  -0.000001  -0.000000  -0.000015  -0.000002   0.000007
    34  C    0.000001  -0.000000   0.000000  -0.000020  -0.000006  -0.000000
    35  H    0.000000  -0.000000  -0.000000  -0.000003   0.000001  -0.000001
    36  H   -0.000006   0.000001  -0.000000   0.000014   0.000001   0.000007
    37  H   -0.000000   0.000000   0.000000   0.000002  -0.000001   0.000000
              19         20         21         22         23         24
     1  C    0.037062   0.075389   0.004896  -0.010866   0.029120   0.007962
     2  C   -0.085848   0.004786  -0.024868  -0.013926  -0.018400  -0.003567
     3  C    0.459910  -0.033209   0.004163  -0.011999  -0.021305  -0.007673
     4  C   -0.085266   0.049326   0.040497  -0.055178  -0.084801   0.018835
     5  O    0.022255   0.002556  -0.010285   0.015436  -0.022498   0.013722
     6  C    0.013491  -0.029637  -0.009627   0.005271  -0.020225  -0.000863
     7  C   -0.103503  -0.048310   0.004039   0.443676   0.430200  -0.012049
     8  O    0.000424  -0.030480   0.000518   0.001518  -0.001286   0.000043
     9  O   -0.024757  -0.001404  -0.009795  -0.000594   0.000610  -0.000272
    10  O    0.014781  -0.001749   0.234894  -0.005740   0.012921  -0.006498
    11  O   -0.059648   0.287569  -0.000570  -0.012630   0.030923  -0.000543
    12  O   -0.003851  -0.000915   0.006134  -0.067347   0.001507   0.263083
    13  H    0.001221  -0.005237  -0.000485   0.000046   0.000589  -0.000993
    14  H   -0.000798   0.003062   0.000277   0.000320  -0.001020   0.000123
    15  H    0.000353   0.001710  -0.000039   0.000143  -0.001591   0.000079
    16  H    0.003952   0.001526   0.007314  -0.000836   0.001322   0.000251
    17  H   -0.005933  -0.012256   0.004057  -0.002505   0.004913  -0.000327
    18  H   -0.007930   0.001611  -0.007712   0.001009  -0.000755   0.000023
    19  H    0.472082   0.012333   0.005438   0.002121   0.002675  -0.000046
    20  H    0.012333   0.380680  -0.000704   0.001204  -0.004329   0.000927
    21  H    0.005438  -0.000704   0.374539  -0.000479   0.001387   0.000549
    22  H    0.002121   0.001204  -0.000479   0.432271  -0.032128   0.014228
    23  H    0.002675  -0.004329   0.001387  -0.032128   0.485468  -0.022813
    24  H   -0.000046   0.000927   0.000549   0.014228  -0.022813   0.378716
    25  H    0.004430  -0.000020   0.005798   0.004609   0.000210   0.002092
    26  O   -0.003483   0.000621  -0.017135   0.001952  -0.004873   0.000508
    27  H    0.002776  -0.000718   0.001124  -0.000206   0.005636  -0.011683
    28  H   -0.001362  -0.000267   0.002455  -0.012664   0.003214  -0.003332
    29  O    0.000146   0.000010   0.000214  -0.000851  -0.000262  -0.000209
    30  H   -0.000123   0.000004  -0.000099  -0.001711   0.000356  -0.000059
    31  C    0.000292  -0.000000   0.000161   0.001675   0.000024  -0.000138
    32  H    0.000016   0.000000   0.000045   0.000034  -0.000004  -0.000044
    33  H   -0.000073   0.000000  -0.000199  -0.000045  -0.000008   0.000038
    34  C   -0.000000   0.000004  -0.000066   0.001525  -0.000364   0.000655
    35  H   -0.000010  -0.000000  -0.000013  -0.000176   0.000039  -0.000149
    36  H   -0.000026   0.000009   0.000138   0.000041  -0.000216   0.000042
    37  H    0.000009  -0.000000  -0.000023   0.000070  -0.000005   0.000054
              25         26         27         28         29         30
     1  C   -0.017228   0.011244  -0.004022  -0.005868   0.000143   0.000071
     2  C    0.012666  -0.001742  -0.004000   0.003654  -0.000217   0.000354
     3  C   -0.043066  -0.022415  -0.001302   0.032504   0.001245  -0.002440
     4  C   -0.007807   0.213273  -0.194883  -0.018531   0.010874  -0.001893
     5  O   -0.005689  -0.000693  -0.002335  -0.001300  -0.000009   0.000014
     6  C    0.001169  -0.000631   0.001483  -0.000194  -0.000006  -0.000042
     7  C    0.043164  -0.181236   0.197736   0.014860  -0.003195   0.004771
     8  O   -0.000166  -0.000044  -0.000078   0.000005  -0.000000  -0.000003
     9  O   -0.000705   0.001487  -0.000291  -0.000361   0.000015   0.000042
    10  O    0.006773  -0.008874   0.006631   0.007096  -0.002989  -0.000735
    11  O   -0.001101  -0.000208  -0.000400   0.000746   0.000002  -0.000003
    12  O   -0.002533  -0.026381   0.021264   0.023745  -0.002720  -0.000657
    13  H   -0.000274   0.000062   0.000321   0.000103   0.000000  -0.000004
    14  H    0.000204  -0.000037   0.000163  -0.000135   0.000000   0.000001
    15  H    0.000025   0.000004  -0.000004  -0.000004  -0.000000   0.000000
    16  H    0.000855  -0.000954   0.000798  -0.000128   0.000016   0.000019
    17  H   -0.000069  -0.000339  -0.000086   0.000345  -0.000003   0.000010
    18  H    0.000057   0.000290   0.000019  -0.000301   0.000003   0.000014
    19  H    0.004430  -0.003483   0.002776  -0.001362   0.000146  -0.000123
    20  H   -0.000020   0.000621  -0.000718  -0.000267   0.000010   0.000004
    21  H    0.005798  -0.017135   0.001124   0.002455   0.000214  -0.000099
    22  H    0.004609   0.001952  -0.000206  -0.012664  -0.000851  -0.001711
    23  H    0.000210  -0.004873   0.005636   0.003214  -0.000262   0.000356
    24  H    0.002092   0.000508  -0.011683  -0.003332  -0.000209  -0.000059
    25  H    0.336502   0.181704   0.033109   0.027490  -0.016480  -0.002210
    26  O    0.181704   8.578941   0.068548  -0.266444   0.066252   0.020327
    27  H    0.033109   0.068548   0.383648   0.030524  -0.011586  -0.001060
    28  H    0.027490  -0.266444   0.030524   0.739535  -0.046405  -0.024780
    29  O   -0.016480   0.066252  -0.011586  -0.046405   8.293296   0.308922
    30  H   -0.002210   0.020327  -0.001060  -0.024780   0.308922   0.355069
    31  C    0.008630   0.003961   0.021518  -0.021133   0.009930  -0.009024
    32  H   -0.000868  -0.003934   0.001115   0.009603  -0.060791  -0.004671
    33  H   -0.001186   0.010237  -0.002114  -0.016830  -0.049368  -0.000477
    34  C   -0.000734  -0.003819  -0.007663   0.004462  -0.089268  -0.008455
    35  H    0.000696   0.005817   0.001906  -0.021519   0.008280   0.002128
    36  H   -0.003566  -0.011438  -0.004424   0.027004  -0.011739   0.001416
    37  H    0.000953  -0.001477  -0.000052   0.001133   0.011486  -0.001196
              31         32         33         34         35         36
     1  C    0.000438   0.000029  -0.000011  -0.000118   0.000013   0.000217
     2  C   -0.000441  -0.000021  -0.000008  -0.000028   0.000025  -0.000039
     3  C   -0.002900  -0.000005   0.000174   0.000090  -0.000014   0.000354
     4  C   -0.005520   0.000199  -0.000113   0.000072   0.000611   0.001942
     5  O    0.000256   0.000006  -0.000006  -0.000036   0.000010   0.000024
     6  C    0.000034   0.000000  -0.000002   0.000006   0.000001  -0.000046
     7  C    0.004409   0.000101   0.000088  -0.003213  -0.000627   0.000617
     8  O    0.000001   0.000000  -0.000000   0.000000  -0.000000  -0.000000
     9  O   -0.000017  -0.000001   0.000007   0.000000   0.000001   0.000008
    10  O   -0.001351  -0.000136   0.000156   0.000944  -0.000019  -0.000476
    11  O    0.000000   0.000001  -0.000002  -0.000007   0.000000   0.000002
    12  O   -0.001273  -0.000014  -0.000022  -0.000623   0.000171  -0.001579
    13  H   -0.000006  -0.000000   0.000001   0.000001   0.000000  -0.000006
    14  H    0.000005   0.000000  -0.000001  -0.000000  -0.000000   0.000001
    15  H   -0.000000  -0.000000  -0.000000   0.000000  -0.000000  -0.000000
    16  H    0.000049   0.000002  -0.000015  -0.000020  -0.000003   0.000014
    17  H   -0.000015   0.000000  -0.000002  -0.000006   0.000001   0.000001
    18  H    0.000007   0.000001   0.000007  -0.000000  -0.000001   0.000007
    19  H    0.000292   0.000016  -0.000073  -0.000000  -0.000010  -0.000026
    20  H   -0.000000   0.000000   0.000000   0.000004  -0.000000   0.000009
    21  H    0.000161   0.000045  -0.000199  -0.000066  -0.000013   0.000138
    22  H    0.001675   0.000034  -0.000045   0.001525  -0.000176   0.000041
    23  H    0.000024  -0.000004  -0.000008  -0.000364   0.000039  -0.000216
    24  H   -0.000138  -0.000044   0.000038   0.000655  -0.000149   0.000042
    25  H    0.008630  -0.000868  -0.001186  -0.000734   0.000696  -0.003566
    26  O    0.003961  -0.003934   0.010237  -0.003819   0.005817  -0.011438
    27  H    0.021518   0.001115  -0.002114  -0.007663   0.001906  -0.004424
    28  H   -0.021133   0.009603  -0.016830   0.004462  -0.021519   0.027004
    29  O    0.009930  -0.060791  -0.049368  -0.089268   0.008280  -0.011739
    30  H   -0.009024  -0.004671  -0.000477  -0.008455   0.002128   0.001416
    31  C    5.369946   0.453356   0.428906   0.141534  -0.039905  -0.037146
    32  H    0.453356   0.513908  -0.040026  -0.057420  -0.011752   0.008567
    33  H    0.428906  -0.040026   0.523718  -0.051639   0.006931  -0.006952
    34  C    0.141534  -0.057420  -0.051639   5.343865   0.409870   0.383240
    35  H   -0.039905  -0.011752   0.006931   0.409870   0.525825  -0.044834
    36  H   -0.037146   0.008567  -0.006952   0.383240  -0.044834   0.556735
    37  H   -0.030125  -0.002018  -0.004038   0.401387  -0.028485  -0.032514
              37
     1  C   -0.000006
     2  C   -0.000008
     3  C   -0.000050
     4  C   -0.000309
     5  O   -0.000000
     6  C    0.000001
     7  C    0.000180
     8  O    0.000000
     9  O   -0.000000
    10  O    0.000028
    11  O   -0.000000
    12  O   -0.000192
    13  H   -0.000000
    14  H    0.000000
    15  H    0.000000
    16  H    0.000002
    17  H   -0.000001
    18  H    0.000000
    19  H    0.000009
    20  H   -0.000000
    21  H   -0.000023
    22  H    0.000070
    23  H   -0.000005
    24  H    0.000054
    25  H    0.000953
    26  O   -0.001477
    27  H   -0.000052
    28  H    0.001133
    29  O    0.011486
    30  H   -0.001196
    31  C   -0.030125
    32  H   -0.002018
    33  H   -0.004038
    34  C    0.401387
    35  H   -0.028485
    36  H   -0.032514
    37  H    0.501917
 Mulliken charges:
               1
     1  C    0.384929
     2  C   -0.545360
     3  C   -0.428854
     4  C   -0.208361
     5  O   -0.065708
     6  C   -0.568869
     7  C   -0.599627
     8  O   -0.412815
     9  O   -0.314548
    10  O   -0.316847
    11  O   -0.250027
    12  O   -0.347114
    13  H    0.222326
    14  H    0.212212
    15  H    0.378819
    16  H    0.307488
    17  H    0.331427
    18  H    0.329927
    19  H    0.326890
    20  H    0.345909
    21  H    0.383462
    22  H    0.302731
    23  H    0.225766
    24  H    0.369331
    25  H    0.432569
    26  O   -0.609071
    27  H    0.468590
    28  H    0.513079
    29  O   -0.414736
    30  H    0.366122
    31  C   -0.296139
    32  H    0.194719
    33  H    0.202872
    34  C   -0.464177
    35  H    0.185182
    36  H    0.174624
    37  H    0.183281
 Sum of Mulliken charges =   1.00000
 Mulliken charges with hydrogens summed into heavy atoms:
               1
     1  C    0.692416
     2  C   -0.213933
     3  C   -0.101964
     4  C   -0.208361
     5  O   -0.065708
     6  C   -0.134330
     7  C   -0.071131
     8  O   -0.033996
     9  O    0.015379
    10  O    0.066615
    11  O    0.095881
    12  O    0.022217
    26  O    0.805167
    29  O   -0.048615
    31  C    0.101452
    34  C    0.078910
 Electronic spatial extent (au):  <R**2>=           6158.9784
 Charge=              1.0000 electrons
 Dipole moment (field-independent basis, Debye):
    X=             -4.1940    Y=              3.1410    Z=             -0.8379  Tot=              5.3064
 Quadrupole moment (field-independent basis, Debye-Ang):
   XX=            -11.8446   YY=            -79.2611   ZZ=            -96.3652
   XY=            -13.0721   XZ=            -13.7090   YZ=              9.2633
 Traceless Quadrupole moment (field-independent basis, Debye-Ang):
   XX=             50.6457   YY=            -16.7708   ZZ=            -33.8749
   XY=            -13.0721   XZ=            -13.7090   YZ=              9.2633
 Octapole moment (field-independent basis, Debye-Ang**2):
  XXX=           -119.4879  YYY=             15.9378  ZZZ=            -12.9219  XYY=             23.2793
  XXY=             25.6768  XXZ=            -24.2878  XZZ=            -18.8163  YZZ=              3.2117
  YYZ=             11.4268  XYZ=              4.4320
 Hexadecapole moment (field-independent basis, Debye-Ang**3):
 XXXX=          -3849.9352 YYYY=           -640.9979 ZZZZ=           -618.4074 XXXY=           -486.7927
 XXXZ=           -221.5119 YYYX=            -15.7778 YYYZ=             61.4446 ZZZX=           -105.7798
 ZZZY=             17.5613 XXYY=           -994.9652 XXZZ=          -1106.3889 YYZZ=           -214.6777
 XXYZ=             98.2258 YYXZ=             26.4035 ZZXY=            -34.7327
 N-N= 1.321017188957D+03 E-N=-4.782491192963D+03  KE= 9.158875165918D+02
 D1PCM: PCM CHGder 1st derivatives, ID1Alg=3 FixD1E=F DoIter=F DoCFld=F I1PDM=0.
 Calling FoFJK, ICntrl=      2127 FMM=F ISym2X=0 I1Cent= 0 IOpClX= 0 NMat=1 NMatS=1 NMatT=0.
 ***** Axes restored to original set *****
 -------------------------------------------------------------------
 Center     Atomic                   Forces (Hartrees/Bohr)
 Number     Number              X              Y              Z
 -------------------------------------------------------------------
      1        6           0.000136292    0.000204060   -0.000303927
      2        6          -0.000008787    0.000003566   -0.000338609
      3        6          -0.000396852    0.000380698   -0.000361703
      4        6          -0.000260873    0.000060896    0.000243575
      5        8          -0.000072886   -0.000024172    0.000109812
      6        6           0.000149834    0.000030243   -0.000257312
      7        6           0.000061407   -0.000144265    0.000140431
      8        8           0.000006450   -0.000137961    0.000331387
      9        8           0.000036395    0.000026251   -0.000019789
     10        8           0.000174951   -0.000333996    0.000027866
     11        8           0.000184520   -0.000207872    0.000128446
     12        8           0.000275807   -0.000084119    0.000086217
     13        1           0.000021677   -0.000015778    0.000005832
     14        1          -0.000001330   -0.000039015    0.000047077
     15        1           0.000093293    0.000014096   -0.000006704
     16        1           0.000009917   -0.000049111   -0.000023405
     17        1          -0.000004850    0.000028870   -0.000038356
     18        1          -0.000009384    0.000064133    0.000462115
     19        1           0.000044188    0.000041145   -0.000047262
     20        1           0.000104254   -0.000118542   -0.000063576
     21        1          -0.000097333   -0.000002783    0.000095073
     22        1          -0.000004959    0.000067562   -0.000026927
     23        1           0.000006384   -0.000042537   -0.000033807
     24        1          -0.000201815    0.000058095   -0.000153090
     25        1          -0.000104697    0.000176135    0.000092213
     26        8           0.000041711   -0.000200477   -0.000122408
     27        1          -0.000372916    0.000259088    0.000186391
     28        1           0.000260768    0.000321046   -0.000058265
     29        8          -0.000148925   -0.000637332   -0.000056274
     30        1           0.000232860   -0.000154659   -0.000029936
     31        6          -0.001159590    0.001906734   -0.002193869
     32        1          -0.000561614   -0.000015822   -0.000616694
     33        1           0.000594800   -0.000720125    0.001185291
     34        6           0.006419864    0.013043088    0.014700947
     35        1          -0.003146173   -0.013778325    0.006200674
     36        1           0.009961573   -0.003363388   -0.011785697
     37        1          -0.012263963    0.003384573   -0.007505737
 -------------------------------------------------------------------
 Cartesian Forces:  Max     0.014700947 RMS     0.003217205

 GradGradGradGradGradGradGradGradGradGradGradGradGradGradGradGradGradGrad
 Berny optimization.
 FormGI is forming the generalized inverse of G from B-inverse, IUseBI=4.
 Internal  Forces:  Max     0.015644425 RMS     0.001936694
 Search for a local minimum.
 Step number   1 out of a maximum of  204
 All quantities printed in internal units (Hartrees-Bohrs-Radians)
 Mixed Optimization -- RFO/linear search
[...]
 0.00000128,0.,0.00000014,-0.00000058,0.00000114,0.00000005,-0.00000335
 ,0.00000053,-0.00002297,-0.00001413,0.00000155,-0.00000238,-0.00000136
 ,0.00000021,-0.00003223,0.00002410,-0.00000400,-0.00000018,0.00000013,
 0.00000009,-0.00000020,0.00000007,0.00000010,-0.00000003,0.00000013,-0
 .00000011,-0.00000068,-0.00000014,0.00000050,-0.00000019,-0.00000047,0
 .00000060,-0.00000102,0.00000019,-0.00000016,-0.00000009,0.00000059,-0
 .00000015,0.00000111,-0.00000005,-0.00000053,-0.00000605,0.00000454,-0
 .00000372,0.00000501,0.00000097,0.00000004,-0.00000233,-0.00000110,-0.
 00000063,-0.00000431,-0.00000168,-0.00000532,-0.00000847,0.00010304,0.
 00004390,-0.00058623,-0.00020998,0.00058633,0.00006132,-0.00006790,0.0
 0000830,0.00197701,0.00005841,-0.00150088,-0.01073947,0.03459681,-0.02
 354029,0.00088614,0.00059928,0.00117691,-0.05761065,-0.04375989,0.0260
 3047,-0.00069965,-0.01873920,0.00883977,0.06615950,-0.00000279,-0.0000
 0240,0.00000284,0.00000116,-0.00000444,0.00000171,0.00000010,-0.000001
 86,-0.00000236,-0.00000302,-0.00000089,0.00001092,0.00000631,0.0000031
 0,-0.00000880,0.00000117,-0.00000133,0.00000159,-0.00001285,-0.0000073
 1,-0.00000568,-0.00000028,0.00000234,-0.00000274,0.00000015,0.00000539
 ,-0.00000267,0.00002575,0.00001610,-0.00000497,0.00000337,0.00000239,-
 0.00000102,0.00005619,-0.00003533,0.00001229,-0.00000010,-0.00000037,-
 0.00000027,0.00000074,0.00000019,-0.00000028,-0.00000017,-0.00000044,0
 .00000017,0.00000127,0.00000072,-0.00000147,0.00000046,0.00000084,-0.0
 0000074,0.00000022,-0.00000028,0.00000111,-0.00000075,-0.00000064,0.00
 000046,-0.00000177,-0.00000035,0.00000134,0.00000644,-0.00000698,0.000
 00571,-0.00000242,0.00000057,-0.00000147,0.00000386,0.00000169,0.00000
 208,0.00000186,-0.00000107,0.00000878,-0.00002397,-0.00007925,0.000002
 13,0.00083667,-0.00021796,-0.00051833,-0.00006836,0.00010596,-0.000069
 81,-0.00107543,0.00006012,0.00107287,0.00735406,-0.00424448,0.00614256
 ,0.00016304,-0.00007274,-0.00058664,-0.03723145,-0.25672772,0.10309064
 ,-0.00043870,0.00433701,-0.00165499,0.03602776,0.27657312,0.00000621,0
 .00000344,-0.00000180,-0.00000104,0.00000183,-0.00000179,0.00000270,0.
 00000323,0.00000577,0.00001303,-0.00000825,-0.00000613,-0.00000952,-0.
 00000118,0.00000448,0.00000017,-0.00000064,0.00000027,0.00001687,0.000
 01010,0.00001455,-0.00000123,-0.00000009,-0.00000014,-0.00000177,-0.00
 000524,-0.00000020,-0.00004084,-0.00001187,-0.00000188,-0.00000550,-0.
 00000102,-0.00000197,-0.00008459,0.00006975,-0.00002769,0.00000009,0.0
 0000005,-0.00000004,-0.00000065,-0.00000004,0.00000012,0.00000039,0.00
 000020,0.00000006,-0.00000017,-0.00000048,0.00000062,-0.00000073,-0.00
 000072,0.00000047,-0.00000124,0.00000139,0.00000025,-0.00000053,0.0000
 0014,-0.00000068,0.00000162,0.00000015,-0.00000025,-0.00000418,0.00000
 781,-0.00000310,0.00000369,-0.00000006,0.00000007,-0.00000502,-0.00000
 231,-0.00000333,-0.00000397,-0.00000383,-0.00000826,0.00006354,0.00011
 405,0.00001665,-0.00100177,0.00036276,0.00056704,0.00009379,-0.0002206
 0,0.00007532,0.00166650,-0.00049288,-0.00117749,-0.00971074,0.01356089
 ,-0.00757717,0.00014791,0.00079034,0.00016444,0.02282923,0.10296373,-0
 .10664075,0.00452078,0.02068146,-0.00862833,-0.01417242,-0.11408567,0.
 11242806,0.00000371,0.00000212,-0.00000166,0.00000012,0.00000130,-0.00
 000177,0.00000281,-0.00000076,0.00000240,0.00001647,-0.00000453,-0.000
 01470,-0.00000895,-0.00000034,0.00001182,-0.00000067,-0.00000050,-0.00
 000103,0.00000466,-0.00000291,-0.00000859,-0.00000057,0.00000017,0.000
 00255,-0.00000364,-0.00000227,0.00000284,-0.00001811,-0.00000295,0.000
 01149,-0.00000415,0.00000105,0.00000152,-0.00001649,0.00002135,0.00000
 609,-0.00000002,0.00000053,0.00000023,-0.00000048,0.00000029,0.0000001
 7,0.00000015,-0.00000028,-0.00000020,-0.00000094,-0.00000087,0.0000011
 9,-0.00000035,-0.00000045,0.00000035,0.00000179,0.00000096,-0.00000049
 ,0.00000112,0.00000070,0.00000079,0.00000182,-0.00000056,-0.00000226,0
 .00000108,0.00000335,-0.00000667,0.00000481,0.00000090,0.00000307,-0.0
 0000257,0.00000142,0.00000056,-0.00000420,-0.00000258,-0.00000852,0.00
 006496,0.00003218,-0.00006386,-0.00012945,0.00056664,0.00030376,0.0000
 3536,-0.00005565,0.00000413,-0.00067930,-0.00103463,-0.00105451,-0.020
 84153,-0.02475521,-0.03504774,-0.00605393,0.00123023,-0.00181849,-0.08
 158355,-0.01852631,-0.00853208,0.00941300,0.01597280,0.01367867,-0.000
 66220,-0.00492087,-0.00365962,0.58139490,-0.00000175,-0.00000214,0.000
 00136,0.00000073,-0.00000173,0.00000025,-0.00000012,-0.00000077,-0.000
 00181,-0.00000446,0.00000351,0.00000222,0.00000418,0.00000065,-0.00000
 267,0.00000023,0.00000017,-0.00000002,-0.00000741,-0.00000240,-0.00000
 265,-0.00000030,0.00000017,0.00000010,0.00000086,0.00000307,-0.0000005
 7,0.00002229,0.00000683,-0.00000310,0.00000141,0.00000011,0.00000011,0
 .00004147,-0.00003398,0.00001460,-0.00000004,-0.00000016,-0.00000025,0
 .00000035,0.00000006,-0.00000015,0.00000020,-0.00000017,-0.00000024,0.
 00000060,0.00000016,-0.00000076,0.00000041,0.00000027,-0.00000039,0.00
 000050,-0.00000009,0.00000012,-0.00000105,-0.00000024,0.00000048,-0.00
 000006,-0.00000033,0.00000012,0.00000307,-0.00000373,0.00000345,-0.000
 00271,0.00000052,0.00000141,0.00000350,0.00000026,0.00000035,0.0000016
 8,0.00000124,0.00000175,-0.00006820,-0.00007714,0.00001241,0.00051549,
 -0.00015989,-0.00069081,-0.00009067,0.00011281,-0.00006245,-0.00182018
 ,0.00040115,0.00150328,0.00536639,0.01099400,0.00924017,0.00282771,-0.
 00048956,0.00128067,-0.03016967,-0.16573081,-0.07517585,-0.00097850,-0
 .00217759,-0.00146411,-0.00819825,-0.01925935,-0.02173113,-0.01830158,
 0.54812297,0.00000930,0.00000444,-0.00000126,0.00000034,0.00000143,-0.
 00000219,0.00000507,0.00000222,0.00000532,0.00001973,-0.00002487,-0.00
 000598,-0.00001420,0.00000271,0.00000674,0.00000041,-0.00000161,0.0000
 0193,0.00001884,0.00001251,0.00001790,-0.00000290,0.00000042,-0.000001
 23,-0.00000633,-0.00000548,0.00000017,-0.00006297,-0.00001129,-0.00000
 644,-0.00000991,0.00000198,-0.00000335,-0.00008510,0.00005554,-0.00002
 767,0.00000034,-0.00000039,-0.00000075,-0.00000074,0.00000025,-0.00000
 022,0.00000107,0.00000014,0.00000031,-0.00000015,-0.00000030,0.0000002
 1,-0.00000115,-0.00000073,0.00000049,0.00000052,0.00000140,0.00000032,
 -0.00000023,0.00000053,-0.00000033,0.00000288,-0.00000057,-0.00000086,
 -0.00000744,0.00001188,-0.00000689,0.00000202,-0.00000212,0.00000016,-
 0.00000571,-0.00000183,-0.00000428,0.00000434,-0.00000469,-0.00000420,
 -0.00007740,0.00012411,0.00000175,-0.00100649,-0.00033996,-0.00007465,
 0.00009681,-0.00010615,0.00002919,0.00078946,0.00030693,0.00061991,-0.
 01312596,-0.01210105,-0.01633995,-0.00237549,0.00060352,-0.00027366,-0
 .01703566,-0.06547998,-0.14028570,-0.00830676,-0.01885351,-0.01569692,
 0.00498598,0.00956492,0.01159940,-0.01294196,-0.03803933,0.55134145,-0
 .00000343,-0.00000213,0.00000139,0.00000170,-0.00000248,0.00000120,-0.
 00000078,-0.00000005,-0.00000165,0.00000034,-0.00000604,0.00000671,0.0
 0000477,0.00000415,-0.00000337,0.00000035,-0.00000079,0.00000025,-0.00
 000941,-0.00000352,-0.00000523,0.00000091,0.00000174,-0.00000084,0.000
 00024,0.00000308,-0.00000085,0.00000271,0.00000813,-0.00000322,0.00000
 174,0.00000197,-0.00000097,0.00001732,0.00001102,0.00000126,-0.0000001
 7,-0.00000006,0.00000029,0.00000047,0.00000007,-0.00000005,-0.00000078
 ,-0.00000043,-0.00000006,0.00000053,0.00000045,-0.00000056,0.00000024,
 0.00000061,-0.00000035,-0.00000027,-0.00000061,0.00000015,-0.00000025,
 -0.00000018,0.00000026,-0.00000163,-0.00000086,0.00000044,0.00000067,-
 0.00000283,0.00000210,-0.00000229,-0.00000193,-0.00000085,0.00000104,-
 0.00000003,0.,-0.00000349,-0.00000153,0.00000390,-0.00000034,-0.000022
 07,-0.00000022,0.00004004,0.00005875,-0.00007345,-0.00002465,-0.000025
 58,0.00000144,-0.00006957,-0.00004145,0.00015862,0.00095895,-0.0001784
 2,0.00113112,0.00013678,0.00008413,0.00005406,-0.00319078,-0.00817648,
 0.00317931,0.00011501,0.00073186,-0.00026200,0.00062099,-0.00124514,-0
 .00131533,-0.05162224,-0.02967208,0.01763256,0.04988281,0.00000083,0.0
 0000027,0.00000011,0.00000157,-0.00000258,0.00000041,0.00000147,-0.000
 00138,0.00000099,0.00000606,-0.00001192,0.00000147,-0.00000305,0.00000
 377,0.00000088,0.00000086,-0.00000140,0.00000035,-0.00000189,0.0000001
 3,0.00000206,-0.00000051,0.00000181,-0.00000087,-0.00000352,0.00000213
 ,-0.00000061,-0.00001600,0.00000760,-0.00000275,-0.00000198,0.00000314
 ,-0.00000154,-0.00001235,0.00001862,-0.00000535,0.00000003,0.00000026,
 0.00000037,-0.00000014,0.00000007,0.00000004,-0.00000026,-0.00000032,0
 .00000006,0.00000036,-0.00000014,-0.00000014,-0.00000044,0.00000027,-0
 .00000022,0.00000136,-0.00000024,0.00000015,0.00000028,0.00000002,0.00
 000032,-0.00000020,-0.00000094,-0.00000008,0.00000242,-0.00000111,-0.0
 0000005,-0.00000011,-0.00000179,-0.00000052,-0.00000095,0.00000071,-0.
 00000051,-0.00000167,-0.00000188,0.00000028,0.00001822,0.00000545,0.00
 000594,-0.00015137,0.00001880,0.00009339,0.00002308,-0.00004688,0.0000
 1626,0.00024604,-0.00008662,-0.00019753,0.00004321,0.00211721,0.000527
 19,0.00020929,0.00024780,0.00005849,-0.00214566,-0.02291558,0.01196137
 ,0.00041804,0.00110532,0.00019682,-0.00133401,-0.00195201,-0.00392388,
 -0.03060727,-0.25368450,0.11096767,0.03414726,0.27626081,0.00000022,0.
 00000051,-0.00000102,-0.00000109,0.00000103,-0.00000021,-0.00000022,-0
 .00000034,0.00000060,-0.00000259,0.00000536,-0.00000234,0.00000084,-0.
 00000264,0.00000004,-0.00000038,0.00000104,-0.00000017,0.00000145,0.00
 000220,0.00000273,0.00000013,-0.00000123,0.00000047,0.00000110,-0.0000
 0103,0.00000044,0.00000448,-0.00000136,0.00000490,0.00000114,-0.000001
 25,0.00000032,0.00000249,-0.00001388,-0.00000280,0.00000006,-0.0000000
 5,-0.00000020,-0.00000004,-0.00000012,0.00000005,0.00000028,0.00000025
 ,0.00000008,-0.00000034,-0.00000002,0.00000026,0.00000016,-0.00000010,
 0.00000014,-0.00000026,0.00000004,0.,-0.00000015,0.,-0.00000014,-0.000
 00029,0.00000054,0.00000019,-0.00000004,-0.00000066,-0.00000280,0.0000
 0039,0.00000067,-0.00000003,0.00000016,-0.00000040,0.00000046,0.000002
 56,0.00000287,-0.00000019,-0.00000198,-0.00001196,0.00000351,0.0001022
 8,-0.00002668,0.00000898,-0.00000222,0.00003315,0.00000240,-0.00007631
 ,0.00004725,-0.00001528,0.00146353,0.00105075,0.00141844,0.00029105,-0
 .00002425,0.00008512,-0.00362987,-0.02273868,0.01100753,0.00038859,0.0
 0081665,0.00134663,-0.00206672,-0.00331216,-0.00251741,0.01741472,0.11
 448972,-0.10946513,-0.01767443,-0.11980531,0.11465229,0.00000129,-0.00
 000026,0.,-0.00000010,-0.00000036,0.00000016,0.00000124,0.00000047,0.0
 0000185,-0.00000138,-0.00000537,0.00000075,-0.00000086,0.00000117,-0.0
 0000276,0.00000071,-0.00000017,0.00000152,-0.00000159,0.00000151,0.000
 00321,-0.00000093,0.00000012,-0.00000146,0.00000007,-0.00000125,-0.000
 00089,-0.00001897,-0.00000291,0.00000091,-0.00000094,0.00000004,-0.000
 00199,0.00000138,0.00000547,-0.00000959,-0.00000028,-0.00000032,-0.000
 00032,0.00000003,0.00000009,-0.00000017,0.00000041,0.00000022,0.000000
 35,0.00000001,0.00000022,-0.00000048,-0.00000013,0.00000026,0.00000003
 ,-0.00000070,0.00000027,0.00000048,-0.00000068,0.00000015,-0.00000052,
 -0.00000026,-0.00000008,0.00000084,-0.00000652,0.00000250,-0.00000445,
 -0.00000110,-0.00000109,-0.00000023,-0.00000066,-0.00000009,-0.0000008
 9,-0.00000150,-0.00000078,0.00000298,-0.00012829,0.00002115,-0.0000242
 6,-0.00057379,-0.00058728,-0.00020158,-0.00002946,0.00004809,0.0000189
 2,0.00000808,0.00022002,0.00041272,0.00192107,0.00036667,0.00106416,0.
 00023552,-0.00003655,0.00000832,0.00633667,-0.00120747,-0.00927108,0.0
 0025381,-0.00145505,-0.00187518,0.00037792,0.00070983,0.00042593,-0.17
 898480,0.01922334,0.13553546,-0.00222450,0.00011702,0.00083636,0.18999
 009,0.00000100,0.00000185,-0.00000250,-0.00000175,0.00000252,-0.000000
 75,-0.00000038,0.00000046,0.00000084,-0.00000595,0.00000843,-0.0000042
 4,-0.00000058,-0.00000396,0.00000242,-0.00000064,0.00000143,-0.0000005
 1,0.00000771,0.00000658,0.00000685,0.00000004,-0.00000282,0.00000115,0
 .00000200,-0.00000350,0.00000119,0.00000490,-0.00001236,0.00000444,0.0
 0000018,-0.00000308,0.00000119,-0.00001263,-0.00001584,-0.00000904,0.0
 0000027,0.00000010,-0.00000018,-0.00000042,-0.00000017,0.00000006,0.00
 000054,0.00000071,0.00000014,-0.00000102,-0.00000018,0.00000078,-0.000
 00009,-0.00000015,0.00000046,-0.00000054,-0.00000025,-0.00000045,0.000
 00035,0.00000045,-0.00000051,0.00000087,0.00000113,-0.00000003,-0.0000
 0534,0.00000344,-0.00000369,0.00000070,0.00000108,-0.00000007,-0.00000
 073,-0.00000145,-0.00000024,0.00000663,0.00000319,0.00000029,-0.000026
 66,0.00001390,0.00000444,-0.00034665,-0.00020672,0.00023021,-0.0000014
 6,0.00005421,0.00001961,0.00010957,0.00008571,-0.00040757,-0.00029867,
 0.00119632,0.00186285,0.00019004,-0.00003390,0.00024104,0.01994531,-0.
 00349357,-0.01851903,-0.00229981,-0.00258755,-0.00348670,0.00061686,0.
 00104164,0.00087299,0.01650058,-0.05144042,-0.01787458,-0.02010024,0.0
 0454527,0.01881842,-0.01924363,0.05270740,-0.00000436,-0.00000264,0.00
 000107,0.00000078,-0.00000116,0.00000165,-0.00000200,-0.00000153,-0.00
 000361,-0.00000772,0.00000666,0.00000343,0.00000513,0.00000141,-0.0000
 0307,0.,0.00000011,-0.00000081,-0.00001321,-0.00000969,-0.00001521,0.0
 0000120,0.00000102,0.00000065,0.00000207,0.00000361,0.00000031,0.00002
 556,0.00000797,0.00000230,0.00000329,0.00000047,0.00000146,0.00004646,
 -0.00001235,0.00001552,-0.00000024,0.00000031,0.00000070,0.00000032,-0
 .00000013,-0.00000005,-0.00000080,-0.00000039,-0.00000019,0.00000002,0
 .00000009,-0.00000022,0.00000039,0.00000047,-0.00000040,0.00000030,-0.
 00000078,-0.00000051,0.00000051,0.00000036,0.00000032,-0.00000098,-0.0
 0000039,0.00000005,0.00000153,-0.00000549,0.00000150,-0.00000075,0.000
 00017,0.00000102,0.00000263,0.00000170,0.00000206,-0.00000436,0.000000
 81,0.00000286,0.00001544,-0.00004773,0.00004131,0.00004382,0.00009964,
 0.00013038,-0.00004806,0.00002816,-0.00000188,-0.00035287,-0.00012116,
 -0.00048264,0.00033546,0.00095988,0.00145910,0.00010069,0.00008776,0.0
 0031301,0.01555595,-0.00258428,-0.01722460,-0.00178152,-0.00343638,-0.
 00152663,-0.00055659,0.00043267,0.00108356,0.13399722,-0.01868673,-0.1
 8368475,0.00924673,-0.00229651,-0.00981244,-0.14665242,0.02426001,0.19
 793011,0.00000387,0.00000217,-0.00000186,-0.00000043,0.00000146,-0.000
 00126,0.00000198,0.00000072,0.00000242,0.00000641,-0.00000635,-0.00000
 597,-0.00000761,-0.00000016,0.00000542,-0.00000015,-0.00000010,-0.0000
 0069,0.00000994,0.00000563,0.00000856,-0.00000073,-0.00000084,0.000001
 07,-0.00000224,-0.00000284,0.00000122,-0.00002266,-0.00000585,0.000000
 28,-0.00000426,-0.00000029,-0.00000041,-0.00003942,0.00002291,-0.00000
 904,0.00000014,0.00000037,0.00000026,-0.00000076,-0.00000006,0.0000000
 8,0.00000026,0.00000025,-0.00000002,-0.00000033,-0.00000058,0.00000073
 ,-0.00000063,-0.00000046,0.00000034,0.00000045,0.00000049,-0.00000040,
 0.00000040,0.00000035,-0.00000008,0.00000163,0.00000006,-0.00000088,-0
 .00000218,0.00000490,-0.00000291,0.00000150,-0.00000066,0.00000004,-0.
 00000265,-0.00000112,-0.00000189,0.00000129,-0.00000037,-0.00000424,0.
 00001976,0.00005491,-0.00001376,-0.00028339,-0.00002181,0.00008733,0.0
 0005585,-0.00006810,0.00001820,0.00065064,0.00000838,-0.00016687,0.000
 28189,-0.00184780,-0.00180612,-0.00020802,0.00035906,0.00016104,-0.007
 63630,0.00362629,-0.00113447,0.00032045,-0.00017325,-0.00017030,0.0002
 8240,-0.00017235,0.00022841,-0.25032865,0.06130263,-0.10403858,0.00536
 698,-0.00095604,0.00294494,-0.01715086,0.00495964,-0.00995961,0.268685
 42,0.00000009,-0.00000024,-0.00000002,0.00000022,0.00000008,-0.0000002
 3,0.00000069,0.00000019,-0.00000027,0.00000426,-0.00000663,-0.00000229
 ,-0.00000142,0.00000184,0.00000225,-0.00000020,-0.00000035,0.,-0.00000
 038,-0.00000130,-0.00000222,0.00000046,0.00000048,0.00000023,-0.000000
 64,-0.00000033,0.00000064,-0.00001096,-0.00000067,0.,-0.00000096,0.000
 00063,0.00000008,-0.00002033,0.00002788,-0.00000355,-0.00000019,0.0000
 0002,0.00000014,0.00000004,0.00000016,-0.00000002,-0.00000021,-0.00000
 015,0.,-0.00000012,-0.00000003,0.,-0.00000003,0.00000002,0.00000011,0.
 00000002,0.00000019,-0.00000017,0.00000037,0.00000032,0.00000030,-0.00
 000022,-0.00000035,-0.00000034,-0.00000182,0.00000208,-0.00000283,0.00
 000083,-0.00000116,0.00000004,-0.00000086,-0.00000005,0.,-0.00000445,-
 0.00000091,-0.00000237,0.00001876,0.00003182,-0.00000018,-0.00030096,0
 .00011272,0.00025477,0.00001830,-0.00008340,0.00003452,0.00072540,-0.0
 0020663,-0.00054080,-0.00355750,-0.00355267,-0.00559470,-0.00124260,0.
 00059890,-0.00049736,-0.01950546,0.00819472,-0.00635610,0.00054012,0.0
 0076122,0.00026969,0.00029121,0.00046605,0.00104554,0.06388395,-0.0665
 8294,0.03118585,0.02443171,-0.00563015,0.01067166,0.00182410,-0.001869
 91,0.00131409,-0.06709120,0.06773854,0.00000155,0.00000092,-0.00000056
 ,0.00000063,-0.00000001,-0.00000050,0.00000162,-0.00000049,0.00000127,
 0.00000679,-0.00000518,-0.00000287,-0.00000353,0.00000069,0.00000344,0
 .00000029,-0.00000057,0.00000002,0.00000235,0.00000036,-0.00000065,-0.
 00000055,0.00000052,0.00000011,-0.00000237,-0.00000031,0.00000035,-0.0
 0000915,0.00000167,0.00000096,-0.00000244,0.00000102,-0.00000038,-0.00
 001849,0.00001803,-0.00000451,0.00000002,0.00000020,0.00000018,-0.0000
 0025,0.,0.00000012,0.00000011,-0.00000008,0.,-0.00000001,-0.00000026,0
 .00000032,-0.00000038,-0.00000009,0.00000007,0.00000093,0.00000028,-0.
 00000008,0.00000028,0.00000037,0.00000003,0.00000072,-0.00000031,-0.00
 000047,0.00000123,0.00000064,-0.00000115,0.00000214,-0.00000006,0.0000
 0047,-0.00000070,-0.00000010,-0.00000022,-0.00000219,-0.00000128,-0.00
 000269,0.00003715,0.00002054,0.00001366,-0.00023990,0.00016132,0.00032
 996,0.00002167,-0.00006920,0.00002564,0.00061361,-0.00019168,-0.000721
 87,-0.00298453,-0.00420783,-0.00423165,-0.00121652,0.00023791,0.000229
 97,-0.01627954,0.00958780,-0.00761339,0.00065747,0.00062397,0.00041644
 ,0.00017744,-0.00009476,0.00063728,-0.10227938,0.02931046,-0.09773886,
 -0.01207838,0.00240126,-0.00671541,0.01973334,-0.00601928,0.01176464,0
 .11385898,-0.03177647,0.10361033\\0.00000315,-0.00000840,0.00000471,-0
 .00000131,-0.00000055,-0.00000932,0.00000112,0.00000879,0.00000270,0.0
 0000172,0.00000226,0.00000437,-0.00000136,-0.00000436,0.00000357,0.000
 00365,-0.00001103,0.00001303,-0.00000054,0.00001533,0.00001493,0.00000
 219,-0.00000013,0.00002287,-0.00000040,-0.00000093,-0.00002132,-0.0000
 0412,0.00000028,-0.00000819,-0.00000695,0.00002207,0.00000812,0.000001
 07,-0.00000644,0.00002818,0.00000450,-0.00002094,0.00001901,0.00000293
 ,-0.00001496,0.00000820,0.00000284,-0.00000142,0.00002634,0.00000397,-
 0.00002094,-0.00000563,-0.00000078,0.00000628,-0.00000825,-0.00000458,
 0.00000543,-0.00002649,-0.00000389,0.00002115,-0.00001078,-0.00000029,
 0.00001543,0.00001440,0.00000025,-0.00000480,-0.00001848,-0.00000229,0
 .00001747,0.00000811,0.00000031,0.00001289,0.00002131,-0.00000025,-0.0
 0000356,0.00001740,0.00000413,-0.00000455,-0.00000816,-0.00000715,-0.0
 0000813,-0.00000534,0.00000994,-0.00000440,-0.00000393,0.00000536,0.00
 000519,-0.00000148,-0.00003184,0.00000720,-0.00001484,0.00000430,0.000
 01692,-0.00001603,0.00001699,-0.00000311,0.00000107,-0.00000374,0.0000
 1115,-0.00001772,-0.00000317,-0.00000326,-0.00002713,-0.00000586,-0.00
 001058,-0.00001188,0.00000258,-0.00000440,0.00000724,0.00000572,-0.000
 01539,-0.00000238,0.00000180,-0.00001551,-0.00000821\\\@


 ... A MOLECULAR SYSTEM ... (PASSES) ... FROM ONE STATE OF EQUILIBRIUM 
 TO ANOTHER ... BY MEANS OF ALL POSSIBLE INTERMEDIATE PATHS, 
 BUT THE PATH MOST ECONOMICAL OF ENERGY WILL BE THE MORE OFTEN TRAVELED.

                      -- HENRY EYRING, 1945
 Job cpu time:       0 days  4 hours 41 minutes 50.8 seconds.
 Elapsed time:       0 days  0 hours 15 minutes 40.4 seconds.
 File lengths (MBytes):  RWF=    904 Int=      0 D2E=      0 Chk=     31 Scr=      1
 Normal termination of Gaussian 16 at Tue Jan 15 10:38:59 2019.
