 Entering Gaussian System, Link 0=g16
 Initial command:
 /nopt/nrel/apps/gaussian/G16.sandy/g16/l1.exe "/scratch/ykim/gaussianScratch.6086214/Gau-17678.inp" -scrdir="/scratch/ykim/gaussianScratch.6086214/"
 Default linda workers: n0314
 Default is to use  24 SMP processors on each worker.
 Entering Link 1 = /nopt/nrel/apps/gaussian/G16.sandy/g16/l1.exe PID=     17679.
  
 Copyright (c) 1988,1990,1992,1993,1995,1998,2003,2009,2016,
            Gaussian, Inc.  All Rights Reserved.
  
 This is part of the Gaussian(R) 16 program.  It is based on
 the Gaussian(R) 09 system (copyright 2009, Gaussian, Inc.),
 the Gaussian(R) 03 system (copyright 2003, Gaussian, Inc.),
 the Gaussian(R) 98 system (copyright 1998, Gaussian, Inc.),
 the Gaussian(R) 94 system (copyright 1995, Gaussian, Inc.),
 the Gaussian 92(TM) system (copyright 1992, Gaussian, Inc.),
 the Gaussian 90(TM) system (copyright 1990, Gaussian, Inc.),
 the Gaussian 88(TM) system (copyright 1988, Gaussian, Inc.),
 the Gaussian 86(TM) system (copyright 1986, Carnegie Mellon
 University), and the Gaussian 82(TM) system (copyright 1983,
 Carnegie Mellon University). Gaussian is a federally registered
 trademark of Gaussian, Inc.
  
 This software contains proprietary and confidential information,
 including trade secrets, belonging to Gaussian, Inc.
  
 This software is provided under written license and may be
 used, copied, transmitted, or stored only in accord with that
 written license.
  
 The following legend is applicable only to US Government
 contracts under FAR:
  
                    RESTRICTED RIGHTS LEGEND
  
 Use, reproduction and disclosure by the US Government is
 subject to restrictions as set forth in subparagraphs (a)
 and (c) of the Commercial Computer Software - Restricted
 Rights clause in FAR 52.227-19.
  
 Gaussian, Inc.
 340 Quinnipiac St., Bldg. 40, Wallingford CT 06492
  
  
 ---------------------------------------------------------------
 Warning -- This program may not be used in any manner that
 competes with the business of Gaussian, Inc. or will provide
 assistance to any competitor of Gaussian, Inc.  The licensee
 of this program is prohibited from giving any competitor of
 Gaussian, Inc. access to this program.  By using this program,
 the user acknowledges that Gaussian, Inc. is engaged in the
 business of creating and licensing software in the field of
 computational chemistry and represents and warrants to the
 licensee that it is not a competitor of Gaussian, Inc. and that
 it will not use this program in any manner prohibited above.
 ---------------------------------------------------------------
  

 Cite this work as:
 Gaussian 16, Revision A.03,
 M. J. Frisch, G. W. Trucks, H. B. Schlegel, G. E. Scuseria, 
 M. A. Robb, J. R. Cheeseman, G. Scalmani, V. Barone, 
 G. A. Petersson, H. Nakatsuji, X. Li, M. Caricato, A. V. Marenich, 
 J. Bloino, B. G. Janesko, R. Gomperts, B. Mennucci, H. P. Hratchian, 
 J. V. Ortiz, A. F. Izmaylov, J. L. Sonnenberg, D. Williams-Young, 
 F. Ding, F. Lipparini, F. Egidi, J. Goings, B. Peng, A. Petrone, 
 T. Henderson, D. Ranasinghe, V. G. Zakrzewski, J. Gao, N. Rega, 
 G. Zheng, W. Liang, M. Hada, M. Ehara, K. Toyota, R. Fukuda, 
 J. Hasegawa, M. Ishida, T. Nakajima, Y. Honda, O. Kitao, H. Nakai, 
 T. Vreven, K. Throssell, J. A. Montgomery, Jr., J. E. Peralta, 
 F. Ogliaro, M. J. Bearpark, J. J. Heyd, E. N. Brothers, K. N. Kudin, 
 V. N. Staroverov, T. A. Keith, R. Kobayashi, J. Normand, 
 K. Raghavachari, A. P. Rendell, J. C. Burant, S. S. Iyengar, 
 J. Tomasi, M. Cossi, J. M. Millam, M. Klene, C. Adamo, R. Cammi, 
 J. W. Ochterski, R. L. Martin, K. Morokuma, O. Farkas, 
 J. B. Foresman, and D. J. Fox, Gaussian, Inc., Wallingford CT, 2016.
 
 ******************************************
 Gaussian 16:  ES64L-G16RevA.03 25-Dec-2016
                12-Dec-2018 
 ******************************************
 %nprocshared=24
 Will use up to   24 processors via shared memory.
 %mem=24GB
 SetLPE:    new flags="-opt 'Tsnet.Node.lindarsharg: ssh'  -nodelist 'n0314' -env GAUSS_MDEF=3221225472 -env GAUSS_EXEDIR="/nopt/nrel/apps/gaussian/G16.sandy/g16/bsd:/nopt/nrel/apps/gaussian/G16.sandy/g16/local:/nopt/nrel/apps/gaussian/G16.sandy/g16/extras:/nopt/nrel/apps/gaussian/G16.sandy/g16""
 Will use up to    1 processors via Linda.
 Default route: CacheSize=327680 MaxDisk=128GB
 ----------------------------------------------------------------------
 # opt freq m062x/6-311++g(d,p) scf=(xqc,maxconventionalcycles=400) tem
 perature=443.15 scrf=(smd,solvent=n,n-dimethylacetamide)
 ----------------------------------------------------------------------
 1/4=327680,18=20,19=15,26=3,38=1,112=443150/1,3;
 2/4=327680,9=110,12=2,17=6,18=5,40=1/2;
 3/4=327680,5=4,6=6,7=1111,11=2,25=1,30=1,70=32201,71=1,72=147,74=-55/1,2,3;
 4/4=327680/1;
 5/4=327680,5=2,8=3,13=1,38=5,53=147,85=400/2,8;
 6/4=327680,7=2,8=2,9=2,10=2,28=1/1;
 7/4=327680/1,2,3,16;
 1/4=327680,18=20,19=15,26=3/3(2);
 2/4=327680,9=110/2;
 99/4=327680/99;
 2/4=327680,9=110/2;
 3/4=327680,5=4,6=6,7=1111,11=2,25=1,30=1,70=32205,71=1,72=147,74=-55/1,2,3;
 4/4=327680,5=5,16=3,69=1/1;
 5/4=327680,5=2,8=3,13=1,38=5,53=147,85=400/2,8;
 7/4=327680/1,2,3,16;
 1/4=327680,18=20,19=15,26=3/3(-5);
 2/4=327680,9=110/2;
 6/4=327680,7=2,8=2,9=2,10=2,19=2,28=1/1;
 99/4=327680,9=1/99;
 -------------------
 Title Card Required
 -------------------
 Symbolic Z-matrix:
 Charge =  1 Multiplicity = 1
 C                    -2.90092   0.13977   1.08761 
 C                    -3.03105   1.25522   0.03359 
 C                    -2.15146   0.75667  -1.1277 
 C                    -1.05109   0.02557  -0.33092 
 O                    -1.74778  -0.63255   0.69652 
 C                    -4.09496  -0.77821   1.2018 
 C                    -0.26795  -1.02087  -1.10108 
 O                    -4.39056  -1.30468  -0.08884 
 O                    -2.46974   2.43429   0.61053 
 O                    -0.13145   0.96996   0.20851 
 O                    -2.83698  -0.09393  -2.00367 
 O                     0.54381  -1.80806  -0.21903 
 H                    -3.86173  -1.58756   1.89925 
 H                    -4.9402   -0.2029    1.591 
 H                    -5.21161  -1.80807  -0.0554 
 H                    -2.71759   0.59262   2.06579 
 H                    -4.06362   1.42079  -0.28015 
 H                    -2.63487   3.17915   0.01768 
 H                    -1.73641   1.58158  -1.70825 
 H                    -3.427    -0.6662   -1.48284 
 H                    -0.62907   1.724     0.56656 
 H                     0.40705  -0.53934  -1.80893 
 H                    -0.95761  -1.66927  -1.63873 
 H                    -0.03688  -2.26776   0.40498 
 H                     1.49453   0.55112   0.70734 
 O                     2.17173  -0.16201   0.793 
 H                     1.66002  -0.9601    0.42319 
 H                     3.08772   0.05838   0.25215 
 O                     4.19646   0.35744  -0.4557 
 C                     5.33156   0.1234   -0.03278 
 C                     5.56648  -0.47783   1.31028 
 H                     5.93629   0.32051   1.96318 
 H                     4.65996  -0.90303   1.73779 
 H                     6.35394  -1.23099   1.24583 
 N                     6.49996   0.44374  -0.86533 
 C                     6.50949   1.8832   -1.16326 
 H                     7.47912   2.1683   -1.51458 
 H                     5.78025   2.09632  -1.91671 
 H                     6.27603   2.43276  -0.27534 
 C                     6.42959  -0.31622  -2.12167 
 H                     7.36046  -0.23141  -2.64243 
 H                     6.23446  -1.34578  -1.90528 
 H                     5.64262   0.07537  -2.73179 
 
 Add virtual bond connecting atoms O29        and H28        Dist= 2.55D+00.
 Add virtual bond connecting atoms H27        and O12        Dist= 2.91D+00.

 GradGradGradGradGradGradGradGradGradGradGradGradGradGradGradGradGradGrad
 Berny optimization.
 Initialization pass.
                           ----------------------------
                           !    Initial Parameters    !
                           ! (Angstroms and Degrees)  !
 --------------------------                            --------------------------
 ! Name  Definition              Value          Derivative Info.                !
 --------------------------------------------------------------------------------
 ! R1    R(1,2)                  1.5402         estimate D2E/DX2                !
 ! R2    R(1,5)                  1.4419         estimate D2E/DX2                !
 ! R3    R(1,6)                  1.5104         estimate D2E/DX2                !
 ! R4    R(1,16)                 1.0934         estimate D2E/DX2                !
 ! R5    R(2,3)                  1.5397         estimate D2E/DX2                !
 ! R6    R(2,9)                  1.4276         estimate D2E/DX2                !
 ! R7    R(2,17)                 1.0918         estimate D2E/DX2                !
 ! R8    R(3,4)                  1.5428         estimate D2E/DX2                !
 ! R9    R(3,11)                 1.4003         estimate D2E/DX2                !
 ! R10   R(3,19)                 1.0908         estimate D2E/DX2                !
 ! R11   R(4,5)                  1.405          estimate D2E/DX2                !
 ! R12   R(4,7)                  1.5171         estimate D2E/DX2                !
 ! R13   R(4,10)                 1.4243         estimate D2E/DX2                !
 ! R14   R(6,8)                  1.4249         estimate D2E/DX2                !
 ! R15   R(6,13)                 1.0936         estimate D2E/DX2                !
 ! R16   R(6,14)                 1.094          estimate D2E/DX2                !
 ! R17   R(7,12)                 1.4341         estimate D2E/DX2                !
 ! R18   R(7,22)                 1.0902         estimate D2E/DX2                !
 ! R19   R(7,23)                 1.0886         estimate D2E/DX2                !
 ! R20   R(8,15)                 0.9637         estimate D2E/DX2                !
 ! R21   R(9,18)                 0.9662         estimate D2E/DX2                !
 ! R22   R(10,21)                0.9718         estimate D2E/DX2                !
 ! R23   R(11,20)                0.9731         estimate D2E/DX2                !
 ! R24   R(12,24)                0.9685         estimate D2E/DX2                !
 ! R25   R(12,27)                1.5419         estimate D2E/DX2                !
 ! R26   R(25,26)                0.9872         estimate D2E/DX2                !
 ! R27   R(26,27)                1.0176         estimate D2E/DX2                !
 ! R28   R(26,28)                1.0863         estimate D2E/DX2                !
 ! R29   R(28,29)                1.349          estimate D2E/DX2                !
 ! R30   R(29,30)                1.2337         estimate D2E/DX2                !
 ! R31   R(30,31)                1.4901         estimate D2E/DX2                !
 ! R32   R(30,35)                1.47           estimate D2E/DX2                !
 ! R33   R(31,32)                1.0956         estimate D2E/DX2                !
 ! R34   R(31,33)                1.0887         estimate D2E/DX2                !
 ! R35   R(31,34)                1.0916         estimate D2E/DX2                !
 ! R36   R(35,36)                1.47           estimate D2E/DX2                !
 ! R37   R(35,40)                1.47           estimate D2E/DX2                !
 ! R38   R(36,37)                1.07           estimate D2E/DX2                !
 ! R39   R(36,38)                1.07           estimate D2E/DX2                !
 ! R40   R(36,39)                1.07           estimate D2E/DX2                !
 ! R41   R(40,41)                1.07           estimate D2E/DX2                !
 ! R42   R(40,42)                1.07           estimate D2E/DX2                !
 ! R43   R(40,43)                1.07           estimate D2E/DX2                !
 ! A1    A(2,1,5)              105.6566         estimate D2E/DX2                !
 ! A2    A(2,1,6)              115.1567         estimate D2E/DX2                !
 ! A3    A(2,1,16)             109.0533         estimate D2E/DX2                !
 ! A4    A(5,1,6)              109.0978         estimate D2E/DX2                !
 ! A5    A(5,1,16)             109.2927         estimate D2E/DX2                !
 ! A6    A(6,1,16)             108.4589         estimate D2E/DX2                !
 ! A7    A(1,2,3)              103.4961         estimate D2E/DX2                !
 ! A8    A(1,2,9)              106.7599         estimate D2E/DX2                !
 ! A9    A(1,2,17)             112.7306         estimate D2E/DX2                !
 ! A10   A(3,2,9)              110.3404         estimate D2E/DX2                !
 ! A11   A(3,2,17)             111.8781         estimate D2E/DX2                !
 ! A12   A(9,2,17)             111.2675         estimate D2E/DX2                !
 ! A13   A(2,3,4)               99.8672         estimate D2E/DX2                !
 ! A14   A(2,3,11)             112.8817         estimate D2E/DX2                !
 ! A15   A(2,3,19)             111.9577         estimate D2E/DX2                !
 ! A16   A(4,3,11)             112.6057         estimate D2E/DX2                !
 ! A17   A(4,3,19)             111.2149         estimate D2E/DX2                !
 ! A18   A(11,3,19)            108.2231         estimate D2E/DX2                !
 ! A19   A(3,4,5)              104.2389         estimate D2E/DX2                !
 ! A20   A(3,4,7)              115.6503         estimate D2E/DX2                !
 ! A21   A(3,4,10)             109.9932         estimate D2E/DX2                !
 ! A22   A(5,4,7)              107.7049         estimate D2E/DX2                !
 ! A23   A(5,4,10)             110.7195         estimate D2E/DX2                !
 ! A24   A(7,4,10)             108.4403         estimate D2E/DX2                !
 ! A25   A(1,5,4)              110.1206         estimate D2E/DX2                !
 ! A26   A(1,6,8)              108.6677         estimate D2E/DX2                !
 ! A27   A(1,6,13)             109.2331         estimate D2E/DX2                !
 ! A28   A(1,6,14)             108.5454         estimate D2E/DX2                !
 ! A29   A(8,6,13)             110.3943         estimate D2E/DX2                !
 ! A30   A(8,6,14)             110.8708         estimate D2E/DX2                !
 ! A31   A(13,6,14)            109.0909         estimate D2E/DX2                !
 ! A32   A(4,7,12)             111.0135         estimate D2E/DX2                !
 ! A33   A(4,7,22)             110.1555         estimate D2E/DX2                !
 ! A34   A(4,7,23)             109.5438         estimate D2E/DX2                !
 ! A35   A(12,7,22)            106.938          estimate D2E/DX2                !
 ! A36   A(12,7,23)            109.5979         estimate D2E/DX2                !
 ! A37   A(22,7,23)            109.5506         estimate D2E/DX2                !
 ! A38   A(6,8,15)             109.7753         estimate D2E/DX2                !
 ! A39   A(2,9,18)             108.7559         estimate D2E/DX2                !
 ! A40   A(4,10,21)            108.8681         estimate D2E/DX2                !
 ! A41   A(3,11,20)            108.6177         estimate D2E/DX2                !
 ! A42   A(7,12,24)            108.5087         estimate D2E/DX2                !
 ! A43   A(7,12,27)            111.3505         estimate D2E/DX2                !
 ! A44   A(24,12,27)           115.2611         estimate D2E/DX2                !
 ! A45   A(25,26,27)           100.9566         estimate D2E/DX2                !
 ! A46   A(25,26,28)           112.8723         estimate D2E/DX2                !
 ! A47   A(27,26,28)           113.7146         estimate D2E/DX2                !
 ! A48   A(12,27,26)           161.2091         estimate D2E/DX2                !
 ! A49   A(28,29,30)           122.2943         estimate D2E/DX2                !
 ! A50   A(29,30,31)           122.0425         estimate D2E/DX2                !
 ! A51   A(29,30,35)           119.7225         estimate D2E/DX2                !
 ! A52   A(31,30,35)           118.2349         estimate D2E/DX2                !
 ! A53   A(30,31,32)           107.2362         estimate D2E/DX2                !
 ! A54   A(30,31,33)           112.3479         estimate D2E/DX2                !
 ! A55   A(30,31,34)           109.8101         estimate D2E/DX2                !
 ! A56   A(32,31,33)           109.3674         estimate D2E/DX2                !
 ! A57   A(32,31,34)           107.1245         estimate D2E/DX2                !
 ! A58   A(33,31,34)           110.7564         estimate D2E/DX2                !
 ! A59   A(30,35,36)           109.4712         estimate D2E/DX2                !
 ! A60   A(30,35,40)           109.4712         estimate D2E/DX2                !
 ! A61   A(36,35,40)           109.4713         estimate D2E/DX2                !
 ! A62   A(35,36,37)           109.4712         estimate D2E/DX2                !
 ! A63   A(35,36,38)           109.4712         estimate D2E/DX2                !
 ! A64   A(35,36,39)           109.4712         estimate D2E/DX2                !
 ! A65   A(37,36,38)           109.4713         estimate D2E/DX2                !
 ! A66   A(37,36,39)           109.4712         estimate D2E/DX2                !
 ! A67   A(38,36,39)           109.4712         estimate D2E/DX2                !
 ! A68   A(35,40,41)           109.4712         estimate D2E/DX2                !
 ! A69   A(35,40,42)           109.4712         estimate D2E/DX2                !
 ! A70   A(35,40,43)           109.4712         estimate D2E/DX2                !
 ! A71   A(41,40,42)           109.4713         estimate D2E/DX2                !
 ! A72   A(41,40,43)           109.4712         estimate D2E/DX2                !
 ! A73   A(42,40,43)           109.4712         estimate D2E/DX2                !
 ! A74   L(26,28,29,33,-1)     182.2381         estimate D2E/DX2                !
 ! A75   L(26,28,29,33,-2)     180.1033         estimate D2E/DX2                !
 ! D1    D(5,1,2,3)             16.4863         estimate D2E/DX2                !
 ! D2    D(5,1,2,9)            -99.9757         estimate D2E/DX2                !
 ! D3    D(5,1,2,17)           137.5529         estimate D2E/DX2                !
 ! D4    D(6,1,2,3)           -103.9794         estimate D2E/DX2                !
 ! D5    D(6,1,2,9)            139.5586         estimate D2E/DX2                !
 ! D6    D(6,1,2,17)            17.0872         estimate D2E/DX2                !
 ! D7    D(16,1,2,3)           133.8611         estimate D2E/DX2                !
 ! D8    D(16,1,2,9)            17.3991         estimate D2E/DX2                !
 ! D9    D(16,1,2,17)         -105.0723         estimate D2E/DX2                !
 ! D10   D(2,1,5,4)              9.9229         estimate D2E/DX2                !
 ! D11   D(6,1,5,4)            134.2716         estimate D2E/DX2                !
 ! D12   D(16,1,5,4)          -107.2906         estimate D2E/DX2                !
 ! D13   D(2,1,6,8)             53.8489         estimate D2E/DX2                !
 ! D14   D(2,1,6,13)           174.3427         estimate D2E/DX2                !
 ! D15   D(2,1,6,14)           -66.8138         estimate D2E/DX2                !
 ! D16   D(5,1,6,8)            -64.714          estimate D2E/DX2                !
 ! D17   D(5,1,6,13)            55.7798         estimate D2E/DX2                !
 ! D18   D(5,1,6,14)           174.6232         estimate D2E/DX2                !
 ! D19   D(16,1,6,8)           176.3274         estimate D2E/DX2                !
 ! D20   D(16,1,6,13)          -63.1788         estimate D2E/DX2                !
 ! D21   D(16,1,6,14)           55.6647         estimate D2E/DX2                !
 ! D22   D(1,2,3,4)            -33.7122         estimate D2E/DX2                !
 ! D23   D(1,2,3,11)            86.0824         estimate D2E/DX2                !
 ! D24   D(1,2,3,19)          -151.4971         estimate D2E/DX2                !
 ! D25   D(9,2,3,4)             80.1943         estimate D2E/DX2                !
 ! D26   D(9,2,3,11)          -160.0111         estimate D2E/DX2                !
 ! D27   D(9,2,3,19)           -37.5906         estimate D2E/DX2                !
 ! D28   D(17,2,3,4)          -155.3526         estimate D2E/DX2                !
 ! D29   D(17,2,3,11)          -35.5581         estimate D2E/DX2                !
 ! D30   D(17,2,3,19)           86.8624         estimate D2E/DX2                !
 ! D31   D(1,2,9,18)          -173.0195         estimate D2E/DX2                !
 ! D32   D(3,2,9,18)            75.1673         estimate D2E/DX2                !
 ! D33   D(17,2,9,18)          -49.6354         estimate D2E/DX2                !
 ! D34   D(2,3,4,5)             40.5808         estimate D2E/DX2                !
 ! D35   D(2,3,4,7)            158.6092         estimate D2E/DX2                !
 ! D36   D(2,3,4,10)           -78.1531         estimate D2E/DX2                !
 ! D37   D(11,3,4,5)           -79.415          estimate D2E/DX2                !
 ! D38   D(11,3,4,7)            38.6134         estimate D2E/DX2                !
 ! D39   D(11,3,4,10)          161.851          estimate D2E/DX2                !
 ! D40   D(19,3,4,5)           158.9171         estimate D2E/DX2                !
 ! D41   D(19,3,4,7)           -83.0545         estimate D2E/DX2                !
 ! D42   D(19,3,4,10)           40.1832         estimate D2E/DX2                !
 ! D43   D(2,3,11,20)          -38.4485         estimate D2E/DX2                !
 ! D44   D(4,3,11,20)           73.7124         estimate D2E/DX2                !
 ! D45   D(19,3,11,20)        -162.9369         estimate D2E/DX2                !
 ! D46   D(3,4,5,1)            -32.3644         estimate D2E/DX2                !
 ! D47   D(7,4,5,1)           -155.7184         estimate D2E/DX2                !
 ! D48   D(10,4,5,1)            85.8729         estimate D2E/DX2                !
 ! D49   D(3,4,7,12)          -169.0805         estimate D2E/DX2                !
 ! D50   D(3,4,7,22)            72.6613         estimate D2E/DX2                !
 ! D51   D(3,4,7,23)           -47.9065         estimate D2E/DX2                !
 ! D52   D(5,4,7,12)           -52.9947         estimate D2E/DX2                !
 ! D53   D(5,4,7,22)          -171.2529         estimate D2E/DX2                !
 ! D54   D(5,4,7,23)            68.1794         estimate D2E/DX2                !
 ! D55   D(10,4,7,12)           66.8685         estimate D2E/DX2                !
 ! D56   D(10,4,7,22)          -51.3897         estimate D2E/DX2                !
 ! D57   D(10,4,7,23)         -171.9575         estimate D2E/DX2                !
 ! D58   D(3,4,10,21)           42.7295         estimate D2E/DX2                !
 ! D59   D(5,4,10,21)          -71.9449         estimate D2E/DX2                !
 ! D60   D(7,4,10,21)          170.0942         estimate D2E/DX2                !
 ! D61   D(1,6,8,15)          -173.2475         estimate D2E/DX2                !
 ! D62   D(13,6,8,15)           66.9795         estimate D2E/DX2                !
 ! D63   D(14,6,8,15)          -54.0312         estimate D2E/DX2                !
 ! D64   D(4,7,12,24)           61.4508         estimate D2E/DX2                !
 ! D65   D(4,7,12,27)          -66.4313         estimate D2E/DX2                !
 ! D66   D(22,7,12,24)        -178.3609         estimate D2E/DX2                !
 ! D67   D(22,7,12,27)          53.7569         estimate D2E/DX2                !
 ! D68   D(23,7,12,24)         -59.6914         estimate D2E/DX2                !
 ! D69   D(23,7,12,27)         172.4264         estimate D2E/DX2                !
 ! D70   D(7,12,27,26)          27.1232         estimate D2E/DX2                !
 ! D71   D(24,12,27,26)        -97.0248         estimate D2E/DX2                !
 ! D72   D(25,26,27,12)          4.1655         estimate D2E/DX2                !
 ! D73   D(28,26,27,12)       -116.9958         estimate D2E/DX2                !
 ! D74   D(25,26,29,30)        139.9343         estimate D2E/DX2                !
 ! D75   D(27,26,29,30)       -106.6346         estimate D2E/DX2                !
 ! D76   D(28,29,30,31)         -1.5681         estimate D2E/DX2                !
 ! D77   D(28,29,30,35)        178.5558         estimate D2E/DX2                !
 ! D78   D(29,30,31,32)       -105.7234         estimate D2E/DX2                !
 ! D79   D(29,30,31,33)         14.4724         estimate D2E/DX2                !
 ! D80   D(29,30,31,34)        138.2083         estimate D2E/DX2                !
 ! D81   D(35,30,31,32)         74.1544         estimate D2E/DX2                !
 ! D82   D(35,30,31,33)       -165.6498         estimate D2E/DX2                !
 ! D83   D(35,30,31,34)        -41.9138         estimate D2E/DX2                !
 ! D84   D(29,30,35,36)         59.5828         estimate D2E/DX2                !
 ! D85   D(29,30,35,40)        -60.4172         estimate D2E/DX2                !
 ! D86   D(31,30,35,36)       -120.2979         estimate D2E/DX2                !
 ! D87   D(31,30,35,40)        119.7021         estimate D2E/DX2                !
 ! D88   D(30,35,36,37)        163.7052         estimate D2E/DX2                !
 ! D89   D(30,35,36,38)        -76.2948         estimate D2E/DX2                !
 ! D90   D(30,35,36,39)         43.7052         estimate D2E/DX2                !
 ! D91   D(40,35,36,37)        -76.2948         estimate D2E/DX2                !
 ! D92   D(40,35,36,38)         43.7052         estimate D2E/DX2                !
 ! D93   D(40,35,36,39)        163.7052         estimate D2E/DX2                !
 ! D94   D(30,35,40,41)       -169.2461         estimate D2E/DX2                !
 ! D95   D(30,35,40,42)        -49.2461         estimate D2E/DX2                !
 ! D96   D(30,35,40,43)         70.7539         estimate D2E/DX2                !
 ! D97   D(36,35,40,41)         70.7539         estimate D2E/DX2                !
 ! D98   D(36,35,40,42)       -169.246          estimate D2E/DX2                !
 ! D99   D(36,35,40,43)        -49.2461         estimate D2E/DX2                !
 --------------------------------------------------------------------------------
 Trust Radius=3.00D-01 FncErr=1.00D-07 GrdErr=1.00D-06 EigMax=2.50D+02 EigMin=1.00D-04
 Number of steps in this run=    227 maximum allowed number of steps=    258.
 GradGradGradGradGradGradGradGradGradGradGradGradGradGradGradGradGradGrad

                          Input orientation:                          
 ---------------------------------------------------------------------
 Center     Atomic      Atomic             Coordinates (Angstroms)
 Number     Number       Type             X           Y           Z
 ---------------------------------------------------------------------
      1          6           0       -2.900916    0.139765    1.087610
      2          6           0       -3.031051    1.255215    0.033590
      3          6           0       -2.151459    0.756669   -1.127697
      4          6           0       -1.051087    0.025565   -0.330917
      5          8           0       -1.747781   -0.632552    0.696523
      6          6           0       -4.094962   -0.778207    1.201795
      7          6           0       -0.267945   -1.020867   -1.101078
      8          8           0       -4.390560   -1.304681   -0.088837
      9          8           0       -2.469739    2.434288    0.610526
     10          8           0       -0.131446    0.969958    0.208506
     11          8           0       -2.836975   -0.093932   -2.003672
     12          8           0        0.543814   -1.808064   -0.219028
     13          1           0       -3.861734   -1.587557    1.899253
     14          1           0       -4.940195   -0.202903    1.591002
     15          1           0       -5.211606   -1.808069   -0.055397
     16          1           0       -2.717589    0.592619    2.065792
     17          1           0       -4.063615    1.420789   -0.280153
     18          1           0       -2.634871    3.179153    0.017680
     19          1           0       -1.736407    1.581584   -1.708254
     20          1           0       -3.426999   -0.666195   -1.482844
     21          1           0       -0.629073    1.724000    0.566561
     22          1           0        0.407045   -0.539337   -1.808931
     23          1           0       -0.957610   -1.669270   -1.638732
     24          1           0       -0.036878   -2.267759    0.404977
     25          1           0        1.494527    0.551120    0.707336
     26          8           0        2.171730   -0.162009    0.792997
     27          1           0        1.660024   -0.960096    0.423189
     28          1           0        3.087722    0.058382    0.252153
     29          8           0        4.196464    0.357439   -0.455696
     30          6           0        5.331562    0.123400   -0.032779
     31          6           0        5.566475   -0.477834    1.310282
     32          1           0        5.936286    0.320509    1.963178
     33          1           0        4.659961   -0.903028    1.737791
     34          1           0        6.353941   -1.230987    1.245831
     35          7           0        6.499957    0.443744   -0.865326
     36          6           0        6.509487    1.883205   -1.163256
     37          1           0        7.479122    2.168303   -1.514579
     38          1           0        5.780246    2.096322   -1.916707
     39          1           0        6.276032    2.432759   -0.275343
     40          6           0        6.429588   -0.316217   -2.121672
     41          1           0        7.360458   -0.231413   -2.642430
     42          1           0        6.234463   -1.345781   -1.905283
     43          1           0        5.642621    0.075374   -2.731787
 ---------------------------------------------------------------------
                    Distance matrix (angstroms):
                    1          2          3          4          5
     1  C    0.000000
     2  C    1.540169   0.000000
     3  C    2.418645   1.539746   0.000000
     4  C    2.333908   2.359060   1.542786   0.000000
     5  O    1.441923   2.376957   2.328233   1.405039   0.000000
     6  C    1.510449   2.575153   3.399938   3.501490   2.405364
     7  C    3.615240   3.755366   2.589974   1.517063   2.360524
     8  O    2.385265   2.901090   3.215893   3.602810   2.837751
     9  O    2.382931   1.427634   2.436622   2.949718   3.151845
    10  O    3.021921   2.918848   2.431334   1.424287   2.327818
    11  O    3.100762   2.451183   1.400281   2.449854   2.960998
    12  O    4.167434   4.714568   3.829887   2.432781   2.733399
    13  H    2.136721   3.500298   4.193192   3.933898   2.612928
    14  H    2.128258   2.862948   4.011128   4.344092   3.343082
    15  H    3.231070   3.761176   4.134272   4.555002   3.734342
    16  H    1.093401   2.160356   3.247428   2.973717   2.077611
    17  H    2.205372   1.091805   2.194476   3.320324   3.245488
    18  H    3.233173   1.964370   2.722867   3.546126   3.972008
    19  H    3.354367   2.194685   1.090779   2.188131   3.268865
    20  H    2.744735   2.479549   1.943624   2.729547   2.751462
    21  H    2.818255   2.504659   2.474651   1.966785   2.611845
    22  H    4.449015   4.293694   2.947822   2.151694   3.305944
    23  H    3.805521   3.955810   2.751656   2.142798   2.674429
    24  H    3.803271   4.638356   3.995961   2.613330   2.384552
    25  H    4.430998   4.629313   4.086907   2.798987   3.451631
    26  O    5.090148   5.445563   4.819025   3.418321   3.948833
    27  H    4.738494   5.202459   4.458692   2.981665   3.434404
    28  H    6.047181   6.238554   5.462656   4.179807   4.904788
    29  O    7.266497   7.299478   6.395866   5.259515   6.135286
    30  C    8.308383   8.439118   7.589168   6.390357   7.156846
    31  C    8.492804   8.862892   8.187444   6.836598   7.341592
    32  H    8.882310   9.220093   8.669219   7.360248   7.845867
    33  H    7.660092   8.167863   7.573708   6.144746   6.497427
    34  H    9.357156   9.784110   9.051312   7.674601   8.142344
    35  N    9.606392   9.607634   8.661048   7.581472   8.463035
    36  C    9.831667   9.635802   8.733976   7.829808   8.830079
    37  H   10.891811  10.662752   9.741174   8.874505   9.892901
    38  H    9.392369   9.063668   8.082645   7.312310   8.422999
    39  H    9.556769   9.386365   8.634720   7.712609   8.644202
    40  C    9.877536   9.829458   8.704794   7.699618   8.655152
    41  H   10.924595  10.833033   9.682318   8.727154   9.709250
    42  H    9.727250   9.817034   8.680358   7.578816   8.425812
    43  H    9.358631   9.179974   7.986548   7.111427   8.177562
                    6          7          8          9         10
     6  C    0.000000
     7  C    4.473049   0.000000
     8  O    1.424880   4.254543   0.000000
     9  O    3.648434   4.440223   4.261285   0.000000
    10  O    4.444341   2.386844   4.837608   2.788099   0.000000
    11  O    3.510809   2.876421   2.747022   3.655241   3.653147
    12  O    4.959595   1.434100   4.961692   5.269460   2.890704
    13  H    1.093568   4.715765   2.076578   4.446763   4.828515
    14  H    1.094018   5.454015   2.082756   3.744231   5.139160
    15  H    1.971812   5.113993   0.963657   5.094986   5.796128
    16  H    2.126690   4.316614   3.322801   2.360291   3.206249
    17  H    2.651931   4.587234   2.751669   2.088284   3.987981
    18  H    4.381175   4.949154   4.816488   0.966208   3.344263
    19  H    4.427164   3.049229   4.242354   2.577134   2.573705
    20  H    2.768756   3.201743   1.810903   3.861546   4.049485
    21  H    4.321684   3.231985   4.873524   1.973447   0.971810
    22  H    5.421217   1.090201   5.153784   4.792922   2.576431
    23  H    4.324993   1.088640   3.784210   4.917813   3.325712
    24  H    4.395649   1.968841   4.486192   5.298142   3.245051
    25  H    5.766627   2.974527   6.221908   4.389886   1.751584
    26  O    6.310170   3.205803   6.719150   5.321399   2.632033
    27  H    5.810265   2.458485   6.081980   5.349007   2.642075
    28  H    7.293329   3.775780   7.609134   6.054646   3.346030
    29  O    8.531396   4.716693   8.754097   7.063172   4.421216
    30  C    9.549682   5.814214   9.826607   8.161761   5.533474
    31  C    9.666714   6.336403  10.088794   8.576179   5.981331
    32  H   10.119922   7.048506  10.653439   8.772627   6.349648
    33  H    8.772203   5.688350   9.241744   7.952423   5.366970
    34  H   10.458801   7.028621  10.827330   9.575760   6.926792
    35  N   10.863630   6.928575  11.057273   9.305689   6.738361
    36  C   11.186193   7.373675  11.407367   9.169324   6.842349
    37  H   12.248266   8.388017  12.449245  10.176770   7.894669
    38  H   10.747451   6.852936  10.879027   8.635009   6.382266
    39  H   10.956722   7.445334  11.303956   8.790522   6.590119
    40  C   11.046493   6.811394  11.053736   9.707121   7.080335
    41  H   12.095607   7.822502  12.073076  10.692075   8.105538
    42  H   10.801532   6.560002  10.779252   9.817400   7.096164
    43  H   10.536707   6.228623  10.466827   9.085479   6.541059
                   11         12         13         14         15
    11  O    0.000000
    12  O    4.189623   0.000000
    13  H    4.302775   4.893321   0.000000
    14  H    4.166184   5.993922   1.781955   0.000000
    15  H    3.517515   5.757746   2.385673   2.315351   0.000000
    16  H    4.128697   4.649778   2.467787   2.407957   4.059910
    17  H    2.601835   5.626511   3.720311   2.627925   3.434228
    18  H    3.852245   5.918818   5.269443   4.384993   5.614026
    19  H    2.026296   4.348208   5.251150   4.932924   5.128225
    20  H    0.973075   4.320700   3.532206   3.457301   2.554663
    21  H    3.845232   3.803721   4.815867   4.831998   5.819102
    22  H    3.280240   2.038668   5.750815   6.345527   6.021113
    23  H    2.479291   2.071014   4.577985   5.333141   4.541222
    24  H    4.285750   0.968455   4.162338   5.450945   5.215464
    25  H    5.150492   2.706983   5.889324   6.538736   7.149808
    26  O    5.736996   2.526619   6.297514   7.156673   7.612026
    27  H    5.182943   1.541888   5.749981   6.745370   6.940274
    28  H    6.341449   3.190157   7.329188   8.142987   8.512172
    29  O    7.215901   4.252913   8.617619   9.379845   9.662373
    30  C    8.405751   5.166021   9.548655  10.404428  10.718651
    31  C    9.041440   5.416219   9.511545  10.514015  10.945393
    32  H    9.637311   6.194481   9.982284  10.895426  11.527402
    33  H    8.417674   4.646601   8.550669   9.626771  10.073850
    34  H    9.814535   6.019668  10.242759  11.346083  11.652815
    35  N    9.421423   6.400310  10.914839  11.718736  11.953549
    36  C    9.590189   7.078580  11.357261  11.959641  12.338431
    37  H   10.572548   8.098669  12.424804  13.019473  13.378913
    38  H    8.891640   6.748819  11.004558  11.511660  11.812263
    39  H    9.613437   7.130643  11.120526  11.671919  12.247400
    40  C    9.269979   6.363018  11.121845  11.961135  11.916900
    41  H   10.218344   7.404414  12.182102  13.008798  12.931952
    42  H    9.157936   5.953204  10.791948  11.764487  11.603804
    43  H    8.512483   5.988249  10.702553  11.435031  11.336872
                   16         17         18         19         20
    16  H    0.000000
    17  H    2.828623   0.000000
    18  H    3.300267   2.285138   0.000000
    19  H    4.022958   2.735183   2.517601   0.000000
    20  H    3.831539   2.491435   4.203063   2.821599   0.000000
    21  H    2.808846   3.550344   2.538103   2.534019   4.212064
    22  H    5.104717   5.115277   5.139740   3.017089   3.849977
    23  H    4.683713   4.587098   5.391114   3.343562   2.669896
    24  H    4.257497   5.503581   6.047183   4.708671   4.197832
    25  H    4.425951   5.711777   4.943087   4.163636   5.522695
    26  O    5.108318   6.521996   5.904904   4.956804   6.064604
    27  H    4.926719   6.238858   5.978624   4.747518   5.440326
    28  H    6.105435   7.299392   6.522443   5.425455   6.780621
    29  O    7.363243   8.330092   7.406301   6.185983   7.760158
    30  C    8.331446   9.487558   8.532539   7.408759   8.912830
    31  C    8.387037   9.943485   9.072290   8.166079   9.419109
    32  H    8.658760  10.307336   9.242377   8.598834  10.025954
    33  H    7.534772   9.250568   8.534492   7.678675   8.707899
    34  H    9.289270  10.857533  10.087439   9.060403  10.170125
    35  N    9.673508  10.624786   9.576389   8.357206  10.007884
    36  C    9.860593  10.619990   9.310928   8.269388  10.263300
    37  H   10.921298  11.632599  10.279226   9.236218  11.268490
    38  H    9.504452  10.001812   8.702216   7.537140   9.622531
    39  H    9.473766  10.389052   8.946908   8.183942  10.257211
    40  C   10.101073  10.794243   9.947806   8.393809   9.883465
    41  H   11.154076  11.782172  10.891040   9.322693  10.858310
    42  H    9.983289  10.786351  10.140902   8.493706   9.694541
    43  H    9.652845  10.101073   9.257964   7.600418   9.185194
                   21         22         23         24         25
    21  H    0.000000
    22  H    3.440813   0.000000
    23  H    4.060238   1.779888   0.000000
    24  H    4.038681   2.843571   2.320061   0.000000
    25  H    2.430050   2.950138   4.055508   3.222220   0.000000
    26  O    3.384199   3.166468   4.240037   3.076149   0.987165
    27  H    3.530565   2.594100   3.406825   2.142380   1.546578
    28  H    4.085058   3.433856   4.787999   3.898386   1.728656
    29  O    5.118428   4.122517   5.663180   5.055058   2.947986
    30  C    6.200830   5.276818   6.733976   5.893167   3.931101
    31  C    6.617100   6.029344   7.258091   5.951552   4.243000
    32  H    6.857424   6.748381   8.028622   6.693714   4.621639
    33  H    6.020543   5.549667   6.598874   5.069436   3.632679
    34  H    7.612873   6.721274   7.872203   6.528744   5.203824
    35  N    7.383252   6.243429   7.789627   7.190002   5.247773
    36  C    7.346881   6.597379   8.282735   7.908524   5.515740
    37  H    8.382802   7.578406   9.269349   8.936084   6.585405
    38  H    6.883648   5.985783   7.723707   7.633764   5.257436
    39  H    6.992254   6.755017   8.426805   7.900034   5.231540
    40  C    7.823923   6.034783   7.525601   7.211633   5.754162
    41  H    8.829149   7.009957   8.500888   8.255542   6.800179
    42  H    7.914650   5.883743   7.204277   6.746633   5.735068
    43  H    7.275384   5.351709   6.913870   6.898280   5.409306
                   26         27         28         29         30
    26  O    0.000000
    27  H    1.017617   0.000000
    28  H    1.086336   1.762065   0.000000
    29  O    2.434873   2.990295   1.348997   0.000000
    30  C    3.278399   3.855134   2.262793   1.233726   0.000000
    31  C    3.448423   4.034832   2.747978   2.386061   1.490127
    32  H    3.971653   4.722069   3.333262   2.979815   2.094848
    33  H    2.762795   3.275829   2.367143   2.571963   2.153955
    34  H    4.340353   4.773152   3.649391   3.173799   2.124727
    35  N    4.674454   5.201537   3.611178   2.341223   1.470000
    36  C    5.179379   5.841101   4.128176   2.859839   2.400500
    37  H    6.238884   6.885036   5.182422   3.895678   3.315022
    38  H    5.046181   5.638531   4.013332   2.768868   2.764583
    39  H    4.971867   5.771216   4.010142   2.943481   2.506790
    40  C    5.162212   5.444230   4.116241   2.866379   2.400500
    41  H    6.223333   6.513367   5.169029   3.890939   3.324543
    42  H    5.018748   5.147429   4.065487   3.025839   2.545583
    43  H    4.952529   5.185282   3.928320   2.711369   2.717298
                   31         32         33         34         35
    31  C    0.000000
    32  H    1.095621   0.000000
    33  H    1.088725   1.782371   0.000000
    34  H    1.091557   1.759592   1.794199   0.000000
    35  N    2.540465   2.886753   3.460577   2.698708   0.000000
    36  C    3.547135   3.541916   4.427179   3.940315   1.470000
    37  H    4.317418   4.229596   5.287594   4.521180   2.086720
    38  H    4.133453   4.269820   4.858651   4.626203   2.086720
    39  H    3.389577   3.096450   4.218041   3.967754   2.086720
    40  C    3.542512   4.163504   4.286185   3.490359   1.470000
    41  H    4.347761   4.852268   5.189421   4.138937   2.086720
    42  H    3.396969   4.222609   3.993379   3.155467   2.086720
    43  H    4.080461   4.710523   4.679746   4.246646   2.086720
                   36         37         38         39         40
    36  C    0.000000
    37  H    1.070000   0.000000
    38  H    1.070000   1.747303   0.000000
    39  H    1.070000   1.747303   1.747303   0.000000
    40  C    2.400500   2.764584   2.506791   3.315023   0.000000
    41  H    2.717299   2.654198   2.905528   3.725170   1.070000
    42  H    3.324544   3.748415   3.471962   4.115312   1.070000
    43  H    2.545585   3.038863   2.183467   3.463032   1.070000
                   41         42         43
    41  H    0.000000
    42  H    1.747303   0.000000
    43  H    1.747303   1.747303   0.000000
 Stoichiometry    C10H24NO8(1+)
 Framework group  C1[X(C10H24NO8)]
 Deg. of freedom   123
 Full point group                 C1      NOp   1
 Largest Abelian subgroup         C1      NOp   1
 Largest concise Abelian subgroup C1      NOp   1
                         Standard orientation:                         
 ---------------------------------------------------------------------
 Center     Atomic      Atomic             Coordinates (Angstroms)
 Number     Number       Type             X           Y           Z
 ---------------------------------------------------------------------
      1          6           0        3.644161    0.046644   -1.008654
      2          6           0        3.650201    1.303933   -0.119097
      3          6           0        2.703265    0.931143    1.036393
      4          6           0        1.696152    0.042931    0.276793
      5          8           0        2.494467   -0.718223   -0.593534
      6          6           0        4.877449   -0.819208   -0.904940
      7          6           0        0.896266   -0.921867    1.131678
      8          8           0        5.092444   -1.144417    0.465570
      9          8           0        3.090673    2.361743   -0.897624
     10          8           0        0.785639    0.856530   -0.456432
     11          8           0        3.351011    0.246150    2.071766
     12          8           0        0.185402   -1.863502    0.316425
     13          1           0        4.729585   -1.728767   -1.493778
     14          1           0        5.727715   -0.263854   -1.311762
     15          1           0        5.932145   -1.607059    0.563034
     16          1           0        3.519728    0.348338   -2.052217
     17          1           0        4.648470    1.561818    0.240057
     18          1           0        3.181205    3.189548   -0.407623
     19          1           0        2.213668    1.808221    1.461633
     20          1           0        4.000734   -0.364201    1.681630
     21          1           0        1.280397    1.576137   -0.882807
     22          1           0        0.150918   -0.379127    1.713424
     23          1           0        1.566551   -1.454168    1.804367
     24          1           0        0.829508   -2.377462   -0.192376
     25          1           0       -0.779958    0.293411   -1.004015
     26          8           0       -1.420973   -0.456709   -1.034240
     27          1           0       -0.909366   -1.169225   -0.518368
     28          1           0       -2.383641   -0.207347   -0.596958
     29          8           0       -3.554208    0.133884   -0.019785
     30          6           0       -4.643615   -0.212003   -0.484148
     31          6           0       -4.751288   -1.006414   -1.740252
     32          1           0       -5.099710   -0.326475   -2.525535
     33          1           0       -3.799024   -1.442869   -2.036938
     34          1           0       -5.512211   -1.780407   -1.624376
     35          7           0       -5.884035    0.164878    0.208829
     36          6           0       -5.971158    1.629724    0.295640
     37          1           0       -6.975115    1.913883    0.532753
     38          1           0       -5.310793    1.981593    1.060497
     39          1           0       -5.690980    2.059944   -0.643142
     40          6           0       -5.881927   -0.406975    1.563037
     41          1           0       -6.852721   -0.295237    1.998896
     42          1           0       -5.631748   -1.446017    1.511045
     43          1           0       -5.159777    0.104081    2.164885
 ---------------------------------------------------------------------
 Rotational constants (GHZ):           0.8117578           0.1142519           0.1127810
 Standard basis: 6-311++G(d,p) (5D, 7F)
 There are   605 symmetry adapted cartesian basis functions of A   symmetry.
 There are   586 symmetry adapted basis functions of A   symmetry.
   586 basis functions,   900 primitive gaussians,   605 cartesian basis functions
    77 alpha electrons       77 beta electrons
       nuclear repulsion energy      1646.1859673722 Hartrees.
 NAtoms=   43 NActive=   43 NUniq=   43 SFac= 1.00D+00 NAtFMM=   60 NAOKFM=F Big=F
 Integral buffers will be    131072 words long.
 Raffenetti 2 integral format.
 Two-electron integral symmetry is turned on.
 ------------------------------------------------------------------------------
 Polarizable Continuum Model (PCM)
 =================================
 Model                : PCM.
 Atomic radii         : SMD-Coulomb.
 Polarization charges : Total charges.
 Charge compensation  : None.
 Solution method      : On-the-fly selection.
 Cavity type          : VdW (van der Waals Surface) (Alpha=1.000).
 Cavity algorithm     : GePol (No added spheres)
                        Default sphere list used, NSphG=   43.
                        Lebedev-Laikov grids with approx.  5.0 points / Ang**2.
                        Smoothing algorithm: York/Karplus (Gamma=1.0000).
                        Polarization charges: spherical gaussians, with
                                              point-specific exponents (IZeta= 3).
                        Self-potential: point-specific (ISelfS= 7).
                        Self-field    : sphere-specific E.n sum rule (ISelfD= 2).
 1st derivatives      : Analytical E(r).r(x)/FMM algorithm (CHGder, D1EAlg=3).
                        Cavity 1st derivative terms included.
 Solvent              : n,n-DiMethylAcetamide, Eps=  37.781000 Eps(inf)=   2.067844
 ------------------------------------------------------------------------------
 ------------------------------------------------------------------------------
 Atomic radii for non-electrostatic terms: SMD-CDS.
 ------------------------------------------------------------------------------
 Nuclear repulsion after PCM non-electrostatic terms =     1646.1787044182 Hartrees.
 One-electron integrals computed using PRISM.
 NBasis=   586 RedAO= T EigKep=  2.08D-06  NBF=   586
 NBsUse=   586 1.00D-06 EigRej= -1.00D+00 NBFU=   586
 ExpMin= 3.60D-02 ExpMax= 8.59D+03 ExpMxC= 1.30D+03 IAcc=3 IRadAn=         5 AccDes= 0.00D+00
 Harris functional with IExCor= 1009 and IRadAn=       5 diagonalized for initial guess.
 HarFok:  IExCor= 1009 AccDes= 0.00D+00 IRadAn=         5 IDoV= 1 UseB2=F ITyADJ=14
 ICtDFT=  3500011 ScaDFX=  1.000000  1.000000  1.000000  1.000000
 FoFCou: FMM=F IPFlag=           0 FMFlag=      100000 FMFlg1=           0
         NFxFlg=           0 DoJE=T BraDBF=F KetDBF=T FulRan=T
         wScrn=  0.000000 ICntrl=       500 IOpCl=  0 I1Cent=   200000004 NGrid=           0
         NMat0=    1 NMatS0=      1 NMatT0=    0 NMatD0=    1 NMtDS0=    0 NMtDT0=    0
 Petite list used in FoFCou.
 Requested convergence on RMS density matrix=1.00D-08 within 400 cycles.
 Requested convergence on MAX density matrix=1.00D-06.
 Requested convergence on             energy=1.00D-06.
 No special actions if energy rises.
 Inv3:  Mode=1 IEnd=    24935067.
 Iteration    1 A*A^-1 deviation from unit magnitude is 6.00D-15 for   2873.
 Iteration    1 A*A^-1 deviation from orthogonality  is 1.93D-15 for   2882   2682.
 Iteration    1 A^-1*A deviation from unit magnitude is 6.22D-15 for   2873.
 Iteration    1 A^-1*A deviation from orthogonality  is 2.00D-15 for   2883   2782.
 Error on total polarization charges =  0.03337
 SCF Done:  E(RM062X) =  -1051.80553860     A.U. after   14 cycles
            NFock= 14  Conv=0.18D-08     -V/T= 2.0035
 SMD-CDS (non-electrostatic) energy       (kcal/mol) =      -4.56
 (included in total energy above)
 QCSCF skips out because SCF is already converged.

 **********************************************************************

            Population analysis using the SCF density.

 **********************************************************************

 Orbital symmetries:
       Occupied  (A) (A) (A) (A) (A) (A) (A) (A) (A) (A) (A) (A)
                 (A) (A) (A) (A) (A) (A) (A) (A) (A) (A) (A) (A)
                 (A) (A) (A) (A) (A) (A) (A) (A) (A) (A) (A) (A)
                 (A) (A) (A) (A) (A) (A) (A) (A) (A) (A) (A) (A)
                 (A) (A) (A) (A) (A) (A) (A) (A) (A) (A) (A) (A)
                 (A) (A) (A) (A) (A) (A) (A) (A) (A) (A) (A) (A)
                 (A) (A) (A) (A) (A)
       Virtual   (A) (A) (A) (A) (A) (A) (A) (A) (A) (A) (A) (A)
                 (A) (A) (A) (A) (A) (A) (A) (A) (A) (A) (A) (A)
                 (A) (A) (A) (A) (A) (A) (A) (A) (A) (A) (A) (A)
                 (A) (A) (A) (A) (A) (A) (A) (A) (A) (A) (A) (A)
                 (A) (A) (A) (A) (A) (A) (A) (A) (A) (A) (A) (A)
                 (A) (A) (A) (A) (A) (A) (A) (A) (A) (A) (A) (A)
                 (A) (A) (A) (A) (A) (A) (A) (A) (A) (A) (A) (A)
                 (A) (A) (A) (A) (A) (A) (A) (A) (A) (A) (A) (A)
                 (A) (A) (A) (A) (A) (A) (A) (A) (A) (A) (A) (A)
                 (A) (A) (A) (A) (A) (A) (A) (A) (A) (A) (A) (A)
                 (A) (A) (A) (A) (A) (A) (A) (A) (A) (A) (A) (A)
                 (A) (A) (A) (A) (A) (A) (A) (A) (A) (A) (A) (A)
                 (A) (A) (A) (A) (A) (A) (A) (A) (A) (A) (A) (A)
                 (A) (A) (A) (A) (A) (A) (A) (A) (A) (A) (A) (A)
                 (A) (A) (A) (A) (A) (A) (A) (A) (A) (A) (A) (A)
                 (A) (A) (A) (A) (A) (A) (A) (A) (A) (A) (A) (A)
                 (A) (A) (A) (A) (A) (A) (A) (A) (A) (A) (A) (A)
                 (A) (A) (A) (A) (A) (A) (A) (A) (A) (A) (A) (A)
                 (A) (A) (A) (A) (A) (A) (A) (A) (A) (A) (A) (A)
                 (A) (A) (A) (A) (A) (A) (A) (A) (A) (A) (A) (A)
                 (A) (A) (A) (A) (A) (A) (A) (A) (A) (A) (A) (A)
                 (A) (A) (A) (A) (A) (A) (A) (A) (A) (A) (A) (A)
                 (A) (A) (A) (A) (A) (A) (A) (A) (A) (A) (A) (A)
                 (A) (A) (A) (A) (A) (A) (A) (A) (A) (A) (A) (A)
                 (A) (A) (A) (A) (A) (A) (A) (A) (A) (A) (A) (A)
                 (A) (A) (A) (A) (A) (A) (A) (A) (A) (A) (A) (A)
                 (A) (A) (A) (A) (A) (A) (A) (A) (A) (A) (A) (A)
                 (A) (A) (A) (A) (A) (A) (A) (A) (A) (A) (A) (A)
                 (A) (A) (A) (A) (A) (A) (A) (A) (A) (A) (A) (A)
                 (A) (A) (A) (A) (A) (A) (A) (A) (A) (A) (A) (A)
                 (A) (A) (A) (A) (A) (A) (A) (A) (A) (A) (A) (A)
                 (A) (A) (A) (A) (A) (A) (A) (A) (A) (A) (A) (A)
                 (A) (A) (A) (A) (A) (A) (A) (A) (A) (A) (A) (A)
                 (A) (A) (A) (A) (A) (A) (A) (A) (A) (A) (A) (A)
                 (A) (A) (A) (A) (A) (A) (A) (A) (A) (A) (A) (A)
                 (A) (A) (A) (A) (A) (A) (A) (A) (A) (A) (A) (A)
                 (A) (A) (A) (A) (A) (A) (A) (A) (A) (A) (A) (A)
                 (A) (A) (A) (A) (A) (A) (A) (A) (A) (A) (A) (A)
                 (A) (A) (A) (A) (A) (A) (A) (A) (A) (A) (A) (A)
                 (A) (A) (A) (A) (A) (A) (A) (A) (A) (A) (A) (A)
                 (A) (A) (A) (A) (A) (A) (A) (A) (A) (A) (A) (A)
                 (A) (A) (A) (A) (A) (A) (A) (A) (A) (A) (A) (A)
                 (A) (A) (A) (A) (A)
 The electronic state is 1-A.
 Alpha  occ. eigenvalues --  -19.69881 -19.67971 -19.67280 -19.65680 -19.65304
 Alpha  occ. eigenvalues --  -19.65181 -19.64576 -19.62724 -14.76435 -10.70465
 Alpha  occ. eigenvalues --  -10.66451 -10.61070 -10.60681 -10.60661 -10.60575
 Alpha  occ. eigenvalues --  -10.59497 -10.55314 -10.55308 -10.55241  -1.24551
 Alpha  occ. eigenvalues --   -1.23560  -1.21781  -1.18667  -1.17292  -1.17166
 Alpha  occ. eigenvalues --   -1.15577  -1.14979  -1.04131  -0.89842  -0.87787
 Alpha  occ. eigenvalues --   -0.86857  -0.82377  -0.81108  -0.76388  -0.75799
 Alpha  occ. eigenvalues --   -0.71695  -0.71379  -0.68831  -0.67364  -0.65746
 Alpha  occ. eigenvalues --   -0.64512  -0.63253  -0.62594  -0.60812  -0.59657
 Alpha  occ. eigenvalues --   -0.59406  -0.58140  -0.56355  -0.55982  -0.55396
 Alpha  occ. eigenvalues --   -0.54350  -0.53078  -0.52431  -0.51681  -0.51060
 Alpha  occ. eigenvalues --   -0.50510  -0.49809  -0.49652  -0.49205  -0.48954
 Alpha  occ. eigenvalues --   -0.47567  -0.47183  -0.45767  -0.45540  -0.45343
 Alpha  occ. eigenvalues --   -0.44448  -0.43351  -0.43243  -0.42721  -0.40929
 Alpha  occ. eigenvalues --   -0.39747  -0.39214  -0.38881  -0.37425  -0.36438
 Alpha  occ. eigenvalues --   -0.33800  -0.31557
 Alpha virt. eigenvalues --   -0.02250  -0.01052  -0.00015   0.00278   0.00629
 Alpha virt. eigenvalues --    0.01141   0.01552   0.01742   0.02442   0.02873
 Alpha virt. eigenvalues --    0.03025   0.03307   0.03620   0.04382   0.04493
 Alpha virt. eigenvalues --    0.04594   0.05010   0.05418   0.06199   0.06664
 Alpha virt. eigenvalues --    0.07176   0.07476   0.07817   0.07947   0.08263
 Alpha virt. eigenvalues --    0.08599   0.08866   0.09202   0.09653   0.09847
 Alpha virt. eigenvalues --    0.10428   0.10996   0.11169   0.11728   0.11843
 Alpha virt. eigenvalues --    0.12317   0.12503   0.12760   0.12949   0.13238
 Alpha virt. eigenvalues --    0.13514   0.13722   0.13960   0.14359   0.14754
 Alpha virt. eigenvalues --    0.15009   0.15175   0.15373   0.15387   0.15689
 Alpha virt. eigenvalues --    0.15917   0.16243   0.16414   0.16862   0.17047
 Alpha virt. eigenvalues --    0.17220   0.17494   0.17902   0.18196   0.18493
 Alpha virt. eigenvalues --    0.18733   0.19396   0.19495   0.19809   0.19955
 Alpha virt. eigenvalues --    0.20579   0.20898   0.21041   0.21358   0.21959
 Alpha virt. eigenvalues --    0.22333   0.22524   0.22984   0.23306   0.23396
 Alpha virt. eigenvalues --    0.23727   0.24143   0.24639   0.25115   0.25614
 Alpha virt. eigenvalues --    0.25749   0.26057   0.26711   0.26932   0.27504
 Alpha virt. eigenvalues --    0.27791   0.28165   0.28326   0.28541   0.29132
 Alpha virt. eigenvalues --    0.29383   0.29641   0.29770   0.29872   0.30219
 Alpha virt. eigenvalues --    0.30947   0.31284   0.31358   0.31958   0.32124
 Alpha virt. eigenvalues --    0.32683   0.32990   0.33233   0.33607   0.33805
 Alpha virt. eigenvalues --    0.33830   0.34327   0.34507   0.34710   0.35183
 Alpha virt. eigenvalues --    0.35277   0.35654   0.35910   0.35988   0.36502
 Alpha virt. eigenvalues --    0.36752   0.37021   0.37310   0.37831   0.38296
 Alpha virt. eigenvalues --    0.38650   0.39109   0.39457   0.39972   0.40508
 Alpha virt. eigenvalues --    0.41056   0.41427   0.41758   0.42383   0.42442
 Alpha virt. eigenvalues --    0.43590   0.44717   0.45346   0.46597   0.47287
 Alpha virt. eigenvalues --    0.47496   0.48192   0.49015   0.49756   0.50068
 Alpha virt. eigenvalues --    0.51065   0.51804   0.52311   0.52456   0.53381
 Alpha virt. eigenvalues --    0.54425   0.56548   0.57162   0.57699   0.57922
 Alpha virt. eigenvalues --    0.59106   0.60674   0.61136   0.61963   0.62116
 Alpha virt. eigenvalues --    0.62661   0.63424   0.63843   0.63951   0.64830
 Alpha virt. eigenvalues --    0.65303   0.66365   0.66785   0.67264   0.67644
 Alpha virt. eigenvalues --    0.68366   0.69172   0.69635   0.70064   0.70713
 Alpha virt. eigenvalues --    0.71435   0.71736   0.71802   0.72361   0.73263
 Alpha virt. eigenvalues --    0.73476   0.74153   0.74260   0.74515   0.74758
 Alpha virt. eigenvalues --    0.75954   0.76664   0.78110   0.78521   0.79568
 Alpha virt. eigenvalues --    0.79770   0.80401   0.81385   0.81926   0.83028
 Alpha virt. eigenvalues --    0.83817   0.84048   0.85057   0.86130   0.88310
 Alpha virt. eigenvalues --    0.88837   0.90810   0.91858   0.92258   0.95411
 Alpha virt. eigenvalues --    0.96423   0.97841   0.98242   1.00599   1.01014
 Alpha virt. eigenvalues --    1.01814   1.04895   1.06484   1.07082   1.08194
 Alpha virt. eigenvalues --    1.08355   1.09610   1.11386   1.11586   1.14435
 Alpha virt. eigenvalues --    1.14870   1.17595   1.18646   1.18822   1.19173
 Alpha virt. eigenvalues --    1.20202   1.20711   1.21580   1.22081   1.22873
 Alpha virt. eigenvalues --    1.23647   1.25008   1.25715   1.27670   1.28138
 Alpha virt. eigenvalues --    1.28642   1.29178   1.30233   1.31118   1.32511
 Alpha virt. eigenvalues --    1.32867   1.34299   1.35574   1.36321   1.37083
 Alpha virt. eigenvalues --    1.37530   1.38425   1.40433   1.41194   1.42377
 Alpha virt. eigenvalues --    1.42923   1.43667   1.45492   1.46097   1.47363
 Alpha virt. eigenvalues --    1.48122   1.50136   1.50413   1.50992   1.53228
 Alpha virt. eigenvalues --    1.53515   1.53810   1.54307   1.54979   1.56237
 Alpha virt. eigenvalues --    1.56795   1.57081   1.58587   1.59937   1.60013
 Alpha virt. eigenvalues --    1.60568   1.61288   1.61744   1.62781   1.63146
 Alpha virt. eigenvalues --    1.64076   1.64216   1.64622   1.64670   1.65292
 Alpha virt. eigenvalues --    1.65649   1.65997   1.67296   1.68271   1.68713
 Alpha virt. eigenvalues --    1.69912   1.70965   1.71742   1.72138   1.73143
 Alpha virt. eigenvalues --    1.73240   1.74085   1.75129   1.75808   1.76900
 Alpha virt. eigenvalues --    1.77293   1.77740   1.78194   1.79617   1.81608
 Alpha virt. eigenvalues --    1.82013   1.82968   1.83588   1.83915   1.87885
 Alpha virt. eigenvalues --    1.88017   1.88703   1.88835   1.89648   1.90342
 Alpha virt. eigenvalues --    1.91086   1.92194   1.93161   1.93814   1.94668
 Alpha virt. eigenvalues --    1.95533   1.98820   1.99674   2.00584   2.01072
 Alpha virt. eigenvalues --    2.02039   2.03622   2.06033   2.06366   2.07155
 Alpha virt. eigenvalues --    2.08273   2.09606   2.09979   2.10331   2.13076
 Alpha virt. eigenvalues --    2.13963   2.14276   2.15792   2.17448   2.18868
 Alpha virt. eigenvalues --    2.18997   2.21062   2.22455   2.22983   2.24644
 Alpha virt. eigenvalues --    2.25427   2.25571   2.25934   2.29003   2.29278
 Alpha virt. eigenvalues --    2.30365   2.33626   2.34291   2.35060   2.36562
 Alpha virt. eigenvalues --    2.37598   2.45746   2.47705   2.49509   2.50593
 Alpha virt. eigenvalues --    2.52561   2.52953   2.54742   2.54957   2.55945
 Alpha virt. eigenvalues --    2.56827   2.57829   2.58005   2.60003   2.60405
 Alpha virt. eigenvalues --    2.60765   2.61273   2.61586   2.62377   2.63272
 Alpha virt. eigenvalues --    2.63935   2.65607   2.66267   2.67250   2.68308
 Alpha virt. eigenvalues --    2.69256   2.69854   2.70812   2.71541   2.71977
 Alpha virt. eigenvalues --    2.74143   2.75248   2.75946   2.77606   2.79481
 Alpha virt. eigenvalues --    2.82017   2.83184   2.85175   2.86646   2.88429
 Alpha virt. eigenvalues --    2.88867   2.89314   2.91969   2.93358   2.93671
 Alpha virt. eigenvalues --    2.95692   2.96302   2.97574   2.98324   2.99418
 Alpha virt. eigenvalues --    2.99924   3.03972   3.05134   3.05580   3.06926
 Alpha virt. eigenvalues --    3.08940   3.10500   3.11610   3.14343   3.15211
 Alpha virt. eigenvalues --    3.17672   3.18484   3.19849   3.20817   3.21639
 Alpha virt. eigenvalues --    3.22324   3.24947   3.25679   3.25891   3.26193
 Alpha virt. eigenvalues --    3.27785   3.28506   3.30684   3.31741   3.34053
 Alpha virt. eigenvalues --    3.34403   3.36147   3.37644   3.39047   3.40053
 Alpha virt. eigenvalues --    3.40804   3.42817   3.44494   3.45370   3.49127
 Alpha virt. eigenvalues --    3.53341   3.55103   3.63556   3.68012   3.70753
 Alpha virt. eigenvalues --    3.82893   3.83576   3.85253   3.86639   3.88185
 Alpha virt. eigenvalues --    3.88412   3.89160   3.90182   3.91189   3.91743
 Alpha virt. eigenvalues --    3.92823   3.94071   3.94953   3.96539   3.98962
 Alpha virt. eigenvalues --    4.00193   4.02004   4.03902   4.06774   4.07009
 Alpha virt. eigenvalues --    4.11624   4.17380   4.22600   4.24028   4.25250
 Alpha virt. eigenvalues --    4.27873   4.34626   4.38436   4.43598   4.86704
 Alpha virt. eigenvalues --    4.88460   5.15302   5.17899   5.18569   5.22052
 Alpha virt. eigenvalues --    5.22552   5.25447   5.26726   5.32749   5.42826
 Alpha virt. eigenvalues --    5.48577   5.50187   5.53743   5.57382   5.58870
 Alpha virt. eigenvalues --    5.62199   5.69584   5.70387   5.73638   5.75481
 Alpha virt. eigenvalues --    5.76830   5.80647   5.82357   5.93396   6.04276
 Alpha virt. eigenvalues --   23.79852  23.84217  23.87772  23.91440  23.94064
 Alpha virt. eigenvalues --   23.95426  24.00051  24.03975  24.07952  24.08934
 Alpha virt. eigenvalues --   35.61573  49.97392  50.01744  50.02399  50.04889
 Alpha virt. eigenvalues --   50.06021  50.08448  50.11506  50.13737
          Condensed to atoms (all electrons):
               1          2          3          4          5          6
     1  C   10.987064  -3.576326   2.391388  -3.319489   0.307673  -1.365717
     2  C   -3.576326  10.925037  -3.813236   2.966394  -0.183965   0.456885
     3  C    2.391388  -3.813236  12.717106  -5.941327   0.132587   0.034715
     4  C   -3.319489   2.966394  -5.941327  16.679473  -0.044930   0.253029
     5  O    0.307673  -0.183965   0.132587  -0.044930   8.125642  -0.098558
     6  C   -1.365717   0.456885   0.034715   0.253029  -0.098558   6.334568
     7  C    0.041003  -0.550399   0.205939  -3.619250  -0.206108  -0.013293
     8  O   -0.006230  -0.080276   0.110429  -0.104129   0.016007   0.125892
     9  O   -0.208683   0.419797  -0.096202  -0.195465   0.015158   0.015293
    10  O    0.047657   0.007840  -0.036591  -0.067765  -0.026666   0.005884
    11  O   -0.000626  -0.148839   0.544292  -0.255078   0.002883   0.000966
    12  O    0.010488  -0.040767   0.060175  -0.121374  -0.027516  -0.008109
    13  H   -0.076591  -0.015507   0.021323  -0.014046  -0.021055   0.450462
    14  H   -0.018399   0.003289   0.003433  -0.024304   0.019875   0.425448
    15  H   -0.077204   0.021726  -0.004394   0.011087   0.002583   0.071412
    16  H    0.498158  -0.161078   0.055193  -0.021974  -0.032692  -0.074555
    17  H    0.086575   0.240778   0.110850  -0.168921  -0.003691  -0.033432
    18  H   -0.076667   0.113578  -0.106742   0.103662  -0.001181   0.000021
    19  H    0.025692  -0.063680   0.368436  -0.021520   0.026642   0.012807
    20  H    0.079718   0.015258  -0.075462   0.080747   0.006156  -0.034511
    21  H    0.016788  -0.034249   0.026424   0.049254  -0.012679  -0.010028
    22  H   -0.022549  -0.003721  -0.043631  -0.038662   0.014155   0.005234
    23  H    0.050877  -0.040207   0.003688  -0.112254  -0.020426  -0.020987
    24  H    0.006396  -0.000062  -0.015721   0.026813   0.017138  -0.001460
    25  H   -0.025148   0.013411  -0.066341  -0.044234  -0.007905   0.002301
    26  O    0.019015  -0.003812  -0.058025   0.261696   0.005248   0.000025
    27  H   -0.015510   0.002910  -0.011531  -0.203226  -0.003374   0.002324
    28  H   -0.005521   0.004033   0.063900   0.012350  -0.004631  -0.001308
    29  O    0.000245   0.000005  -0.001241   0.012789   0.000189   0.000017
    30  C   -0.000359  -0.000939  -0.003959  -0.022709   0.000102   0.000063
    31  C    0.000379   0.000846  -0.006257   0.007971   0.000417   0.000016
    32  H    0.000018   0.000023  -0.000054  -0.000002  -0.000004   0.000003
    33  H    0.000242  -0.000112   0.000445   0.002003   0.000048  -0.000029
    34  H   -0.000014   0.000006  -0.000032  -0.000474   0.000011   0.000001
    35  N   -0.000007  -0.000007   0.000200   0.000963  -0.000003  -0.000001
    36  C    0.000059  -0.000153   0.001009  -0.001745   0.000010   0.000001
    37  H    0.000001  -0.000005   0.000041  -0.000185   0.000000   0.000000
    38  H   -0.000010   0.000028  -0.000306   0.000411  -0.000004  -0.000002
    39  H   -0.000005   0.000008  -0.000091   0.000044   0.000005   0.000001
    40  C    0.000055  -0.000112   0.000536   0.002292   0.000001  -0.000002
    41  H    0.000003  -0.000001   0.000016   0.000332   0.000000  -0.000000
    42  H    0.000007  -0.000019  -0.000024  -0.000544  -0.000003  -0.000001
    43  H   -0.000004   0.000033   0.000121  -0.001386   0.000005   0.000001
               7          8          9         10         11         12
     1  C    0.041003  -0.006230  -0.208683   0.047657  -0.000626   0.010488
     2  C   -0.550399  -0.080276   0.419797   0.007840  -0.148839  -0.040767
     3  C    0.205939   0.110429  -0.096202  -0.036591   0.544292   0.060175
     4  C   -3.619250  -0.104129  -0.195465  -0.067765  -0.255078  -0.121374
     5  O   -0.206108   0.016007   0.015158  -0.026666   0.002883  -0.027516
     6  C   -0.013293   0.125892   0.015293   0.005884   0.000966  -0.008109
     7  C   10.195969   0.007851   0.036788  -0.171765  -0.062490   0.032861
     8  O    0.007851   8.260756   0.005316   0.002815  -0.006946  -0.001336
     9  O    0.036788   0.005316   8.016264   0.029145   0.025200  -0.000125
    10  O   -0.171765   0.002815   0.029145   8.200199   0.025089   0.023815
    11  O   -0.062490  -0.006946   0.025200   0.025089   7.820015   0.001933
    12  O    0.032861  -0.001336  -0.000125   0.023815   0.001933   8.195087
    13  H   -0.009040  -0.053625  -0.001287   0.002429   0.003232   0.000936
    14  H    0.008399  -0.072411  -0.002085  -0.001589  -0.001686  -0.000692
    15  H   -0.001681   0.201735  -0.000066  -0.000032   0.001442  -0.000009
    16  H   -0.001840   0.010134  -0.006800   0.000325  -0.002437   0.000324
    17  H   -0.006302   0.008096   0.005276   0.004256  -0.007746   0.000506
    18  H    0.016811   0.000237   0.279491  -0.008845   0.002697  -0.000114
    19  H   -0.115946  -0.000100  -0.029425   0.017148  -0.060532  -0.006253
    20  H   -0.056963  -0.038453  -0.001706  -0.002202   0.290228  -0.001102
    21  H   -0.008875  -0.000060  -0.012453   0.223147  -0.000526   0.009359
    22  H    0.448936   0.001168  -0.000091  -0.006002  -0.009551  -0.066601
    23  H    0.421285  -0.002786   0.000607   0.014385   0.032479   0.007909
    24  H   -0.009296   0.000146  -0.000401  -0.006607  -0.001340   0.250360
    25  H    0.101473  -0.000098  -0.002254   0.017053  -0.002994  -0.014563
    26  O   -0.259675  -0.000011   0.001903   0.002270  -0.000422  -0.044376
    27  H    0.218006  -0.000073  -0.000282   0.016852  -0.000661   0.011705
    28  H   -0.002528  -0.000051  -0.000504  -0.012145   0.001704   0.059138
    29  O   -0.006503   0.000000   0.000015  -0.002718  -0.000002  -0.001487
    30  C    0.026713   0.000003   0.000001   0.003088  -0.000061  -0.008937
    31  C   -0.017509  -0.000000   0.000017  -0.000774  -0.000006   0.000636
    32  H   -0.000514  -0.000000  -0.000001   0.000113  -0.000000   0.000190
    33  H    0.001361   0.000002   0.000013  -0.000191  -0.000012  -0.004865
    34  H    0.000933   0.000000   0.000001   0.000002   0.000000  -0.000146
    35  N    0.000411   0.000000   0.000000  -0.000138   0.000000  -0.000061
    36  C    0.002906  -0.000000   0.000003   0.000000  -0.000001  -0.000438
    37  H    0.000269  -0.000000   0.000000   0.000004  -0.000000  -0.000016
    38  H   -0.000711  -0.000000   0.000003   0.000026   0.000002   0.000059
    39  H    0.000000   0.000000   0.000002   0.000018  -0.000000  -0.000016
    40  C   -0.002598   0.000000   0.000001  -0.000225   0.000005   0.000205
    41  H   -0.000540   0.000000   0.000000  -0.000009   0.000000   0.000038
    42  H    0.000416  -0.000000   0.000000   0.000073  -0.000001  -0.000008
    43  H    0.002666  -0.000000  -0.000002  -0.000071  -0.000005  -0.000187
              13         14         15         16         17         18
     1  C   -0.076591  -0.018399  -0.077204   0.498158   0.086575  -0.076667
     2  C   -0.015507   0.003289   0.021726  -0.161078   0.240778   0.113578
     3  C    0.021323   0.003433  -0.004394   0.055193   0.110850  -0.106742
     4  C   -0.014046  -0.024304   0.011087  -0.021974  -0.168921   0.103662
     5  O   -0.021055   0.019875   0.002583  -0.032692  -0.003691  -0.001181
     6  C    0.450462   0.425448   0.071412  -0.074555  -0.033432   0.000021
     7  C   -0.009040   0.008399  -0.001681  -0.001840  -0.006302   0.016811
     8  O   -0.053625  -0.072411   0.201735   0.010134   0.008096   0.000237
     9  O   -0.001287  -0.002085  -0.000066  -0.006800   0.005276   0.279491
    10  O    0.002429  -0.001589  -0.000032   0.000325   0.004256  -0.008845
    11  O    0.003232  -0.001686   0.001442  -0.002437  -0.007746   0.002697
    12  O    0.000936  -0.000692  -0.000009   0.000324   0.000506  -0.000114
    13  H    0.548864  -0.058360   0.002805  -0.004566   0.005942  -0.001095
    14  H   -0.058360   0.524737  -0.009481  -0.005780  -0.013889   0.001447
    15  H    0.002805  -0.009481   0.422000  -0.001949  -0.002838  -0.000111
    16  H   -0.004566  -0.005780  -0.001949   0.423859   0.008674  -0.001189
    17  H    0.005942  -0.013889  -0.002838   0.008674   0.465766  -0.026952
    18  H   -0.001095   0.001447  -0.000111  -0.001189  -0.026952   0.407614
    19  H    0.000999  -0.000374   0.000308   0.003918  -0.005375  -0.008095
    20  H   -0.006222   0.003685   0.002646   0.001173  -0.013521   0.001880
    21  H   -0.000224  -0.000466  -0.000002   0.008382   0.006568  -0.009891
    22  H    0.000036   0.000208   0.000173  -0.001018  -0.002394   0.001145
    23  H    0.000868  -0.001136  -0.001543   0.002083   0.005000  -0.000943
    24  H   -0.001672   0.000242   0.000103   0.000129  -0.000318   0.000048
    25  H   -0.000535   0.000636   0.000043   0.001200  -0.000634   0.000447
    26  O    0.000084   0.000009   0.000006  -0.001713  -0.000677   0.000350
    27  H    0.000427   0.000228   0.000006   0.001107  -0.000017  -0.000043
    28  H    0.000213  -0.000304  -0.000008   0.000389   0.000731  -0.000467
    29  O   -0.000004   0.000001   0.000000   0.000010  -0.000005  -0.000001
    30  C   -0.000003   0.000009  -0.000000   0.000011  -0.000053   0.000033
    31  C   -0.000009   0.000006   0.000000  -0.000013  -0.000001  -0.000001
    32  H    0.000000  -0.000000   0.000000  -0.000006   0.000000  -0.000000
    33  H   -0.000020   0.000006   0.000000  -0.000018  -0.000011   0.000019
    34  H    0.000001   0.000000  -0.000000  -0.000000   0.000000  -0.000000
    35  N   -0.000000   0.000000  -0.000000   0.000002   0.000000  -0.000001
    36  C   -0.000000   0.000000  -0.000000   0.000001  -0.000001   0.000002
    37  H   -0.000000   0.000000   0.000000  -0.000000  -0.000000   0.000000
    38  H   -0.000000  -0.000000   0.000000   0.000003   0.000000   0.000002
    39  H    0.000000   0.000000  -0.000000  -0.000003  -0.000001   0.000002
    40  C   -0.000001  -0.000000  -0.000000   0.000002  -0.000002   0.000002
    41  H   -0.000000  -0.000000  -0.000000   0.000000  -0.000000   0.000000
    42  H   -0.000000  -0.000000   0.000000   0.000001  -0.000000  -0.000000
    43  H    0.000000   0.000000   0.000000   0.000000   0.000002  -0.000001
              19         20         21         22         23         24
     1  C    0.025692   0.079718   0.016788  -0.022549   0.050877   0.006396
     2  C   -0.063680   0.015258  -0.034249  -0.003721  -0.040207  -0.000062
     3  C    0.368436  -0.075462   0.026424  -0.043631   0.003688  -0.015721
     4  C   -0.021520   0.080747   0.049254  -0.038662  -0.112254   0.026813
     5  O    0.026642   0.006156  -0.012679   0.014155  -0.020426   0.017138
     6  C    0.012807  -0.034511  -0.010028   0.005234  -0.020987  -0.001460
     7  C   -0.115946  -0.056963  -0.008875   0.448936   0.421285  -0.009296
     8  O   -0.000100  -0.038453  -0.000060   0.001168  -0.002786   0.000146
     9  O   -0.029425  -0.001706  -0.012453  -0.000091   0.000607  -0.000401
    10  O    0.017148  -0.002202   0.223147  -0.006002   0.014385  -0.006607
    11  O   -0.060532   0.290228  -0.000526  -0.009551   0.032479  -0.001340
    12  O   -0.006253  -0.001102   0.009359  -0.066601   0.007909   0.250360
    13  H    0.000999  -0.006222  -0.000224   0.000036   0.000868  -0.001672
    14  H   -0.000374   0.003685  -0.000466   0.000208  -0.001136   0.000242
    15  H    0.000308   0.002646  -0.000002   0.000173  -0.001543   0.000103
    16  H    0.003918   0.001173   0.008382  -0.001018   0.002083   0.000129
    17  H   -0.005375  -0.013521   0.006568  -0.002394   0.005000  -0.000318
    18  H   -0.008095   0.001880  -0.009891   0.001145  -0.000943   0.000048
    19  H    0.492336   0.015857   0.004060   0.002730   0.002413  -0.000007
    20  H    0.015857   0.408347  -0.001426   0.001749  -0.004872   0.001223
    21  H    0.004060  -0.001426   0.393090  -0.001405   0.001993   0.000519
    22  H    0.002730   0.001749  -0.001405   0.420289  -0.027853   0.015577
    23  H    0.002413  -0.004872   0.001993  -0.027853   0.473804  -0.023317
    24  H   -0.000007   0.001223   0.000519   0.015577  -0.023317   0.402983
    25  H    0.010787   0.000338   0.000535   0.008253   0.000607   0.005732
    26  O   -0.002965   0.001082  -0.016432   0.014231  -0.010165   0.008727
    27  H    0.003676  -0.000932  -0.001496  -0.007461   0.010043  -0.019202
    28  H   -0.006397  -0.000492   0.009188  -0.024197   0.004997  -0.009801
    29  O    0.000101   0.000014   0.000196  -0.002063  -0.000164   0.000307
    30  C    0.000810  -0.000007  -0.001572   0.005298  -0.000164   0.001059
    31  C   -0.000029   0.000031  -0.000117  -0.002270  -0.000199  -0.000260
    32  H   -0.000012   0.000000  -0.000024   0.000049  -0.000013   0.000061
    33  H    0.000077   0.000016  -0.000328   0.001088  -0.000560   0.001030
    34  H    0.000006  -0.000001  -0.000005  -0.000173   0.000092  -0.000177
    35  N    0.000019  -0.000000  -0.000018  -0.000236   0.000060  -0.000014
    36  C    0.000075  -0.000006   0.000128   0.000729   0.000046  -0.000113
    37  H    0.000006  -0.000000   0.000006  -0.000033   0.000008  -0.000005
    38  H   -0.000067   0.000003   0.000041  -0.000005  -0.000002   0.000031
    39  H    0.000011  -0.000000  -0.000099   0.000070   0.000005   0.000005
    40  C    0.000006   0.000005   0.000019   0.001234  -0.000296   0.000317
    41  H   -0.000008   0.000001   0.000002   0.000209  -0.000048   0.000020
    42  H   -0.000007   0.000001   0.000029   0.000159  -0.000055   0.000009
    43  H    0.000038  -0.000008  -0.000015  -0.001421   0.000309  -0.000081
              25         26         27         28         29         30
     1  C   -0.025148   0.019015  -0.015510  -0.005521   0.000245  -0.000359
     2  C    0.013411  -0.003812   0.002910   0.004033   0.000005  -0.000939
     3  C   -0.066341  -0.058025  -0.011531   0.063900  -0.001241  -0.003959
     4  C   -0.044234   0.261696  -0.203226   0.012350   0.012789  -0.022709
     5  O   -0.007905   0.005248  -0.003374  -0.004631   0.000189   0.000102
     6  C    0.002301   0.000025   0.002324  -0.001308   0.000017   0.000063
     7  C    0.101473  -0.259675   0.218006  -0.002528  -0.006503   0.026713
     8  O   -0.000098  -0.000011  -0.000073  -0.000051   0.000000   0.000003
     9  O   -0.002254   0.001903  -0.000282  -0.000504   0.000015   0.000001
    10  O    0.017053   0.002270   0.016852  -0.012145  -0.002718   0.003088
    11  O   -0.002994  -0.000422  -0.000661   0.001704  -0.000002  -0.000061
    12  O   -0.014563  -0.044376   0.011705   0.059138  -0.001487  -0.008937
    13  H   -0.000535   0.000084   0.000427   0.000213  -0.000004  -0.000003
    14  H    0.000636   0.000009   0.000228  -0.000304   0.000001   0.000009
    15  H    0.000043   0.000006   0.000006  -0.000008   0.000000  -0.000000
    16  H    0.001200  -0.001713   0.001107   0.000389   0.000010   0.000011
    17  H   -0.000634  -0.000677  -0.000017   0.000731  -0.000005  -0.000053
    18  H    0.000447   0.000350  -0.000043  -0.000467  -0.000001   0.000033
    19  H    0.010787  -0.002965   0.003676  -0.006397   0.000101   0.000810
    20  H    0.000338   0.001082  -0.000932  -0.000492   0.000014  -0.000007
    21  H    0.000535  -0.016432  -0.001496   0.009188   0.000196  -0.001572
    22  H    0.008253   0.014231  -0.007461  -0.024197  -0.002063   0.005298
    23  H    0.000607  -0.010165   0.010043   0.004997  -0.000164  -0.000164
    24  H    0.005732   0.008727  -0.019202  -0.009801   0.000307   0.001059
    25  H    0.397820   0.121854   0.033539  -0.017595  -0.013283   0.031960
    26  O    0.121854   8.796073   0.044003  -0.382704   0.095738  -0.100950
    27  H    0.033539   0.044003   0.452715   0.034754  -0.018988   0.017601
    28  H   -0.017595  -0.382704   0.034754   0.937038   0.071819   0.087701
    29  O   -0.013283   0.095738  -0.018988   0.071819   8.189388   0.413099
    30  C    0.031960  -0.100950   0.017601   0.087701   0.413099   7.381765
    31  C   -0.001042   0.140432   0.002204  -0.278883  -0.134976  -0.651668
    32  H    0.001068   0.000206  -0.000713  -0.006262  -0.000296  -0.010593
    33  H    0.005477  -0.009887  -0.013630   0.015485  -0.019638  -0.039592
    34  H    0.000404  -0.000073   0.002464  -0.009725   0.009209  -0.110315
    35  N    0.005327  -0.009162  -0.000720  -0.037827  -0.282682  -0.162080
[...]
 .00000098,0.00000073,-0.00000007,0.00000030,0.00000278,-0.00000066,0.0
 0000665,-0.00003011,0.00000436,-0.00018184,-0.00006762,0.00005411,0.00
 000887,0.00001414,0.00003006,0.00041349,0.00027526,0.00021949,0.003172
 48,-0.00072164,0.00096146,-0.00665222,-0.00106583,-0.00056206,-0.00022
 001,0.00062582,0.00000634,0.00003432,0.00000979,0.00008721,0.00000801,
 0.00009065,-0.00001519,0.00011531,0.00001271,-0.00011091,-0.02107586,-
 0.01607413,-0.02433858,-0.08495626,-0.07683251,-0.11605625,0.00280681,
 0.00112564,0.00277700,0.00630299,0.00787167,0.00741173,0.09869747,0.08
 456246,0.13387392,-0.00001303,0.00000541,0.00001048,-0.00000156,-0.000
 00120,0.00000267,-0.00000594,0.00000912,-0.00000475,-0.00004446,-0.000
 03247,-0.00000999,0.00002770,0.00000800,-0.00001620,-0.00000108,-0.000
 00206,0.00000008,-0.00002102,0.00002807,-0.00001144,0.00000418,0.00000
 188,-0.00000125,0.00001034,-0.00000747,-0.00000687,0.00008224,-0.00002
 713,-0.00000278,0.00001522,-0.00000216,0.00000392,0.00008588,0.0000259
 5,0.00004241,0.00000002,0.00000073,0.00000017,0.00000188,0.00000019,-0
 .00000028,-0.00000095,-0.00000015,-0.00000023,0.00000058,-0.00000095,-
 0.00000188,0.00000162,-0.00000065,-0.00000101,-0.00000109,0.00000261,0
 .00000153,-0.00000003,0.00000069,0.00000023,-0.00000515,-0.00000188,0.
 00000151,0.00000452,0.00000999,0.00001561,-0.00000355,0.00000058,-0.00
 000632,0.00000580,-0.00000304,0.00000192,-0.00000139,-0.00001512,0.000
 00712,-0.00008763,0.00011548,0.00006022,0.00075635,0.00028375,-0.00029
 288,-0.00007615,-0.00011420,-0.00010135,-0.00143685,-0.00073074,0.0003
 1743,0.00530797,-0.00146192,0.00196480,-0.03826225,-0.00430411,-0.0057
 8315,-0.00138521,0.00012460,-0.00152003,0.00062154,-0.00009269,0.00013
 139,-0.00022716,0.00049648,-0.00136905,0.00012287,0.00005012,0.0002357
 6,-0.19625692,-0.00845520,-0.05558469,0.00311803,0.00170722,-0.0078130
 4,0.00033668,-0.00045156,0.00232437,0.00046645,-0.00086810,0.00188432,
 0.00056219,-0.00017997,0.00284381,0.50572848,0.00000067,-0.00000014,-0
 .00000093,-0.00000003,-0.00000002,-0.00000032,0.00000038,-0.00000085,0
 .,0.00000294,0.00000186,0.00000071,-0.00000151,-0.00000069,0.00000143,
 -0.00000012,0.00000022,0.,0.00000199,-0.00000405,0.00000159,0.00000010
 ,-0.00000009,0.00000013,0.00000013,0.00000096,0.00000062,-0.00000308,0
 .00000217,0.00000125,-0.00000057,0.00000030,-0.00000031,-0.00001521,-0
 .00000393,-0.00000873,0.00000010,-0.00000002,0.00000005,-0.00000012,-0
 .00000011,-0.00000009,-0.00000014,0.00000012,0.00000003,-0.00000014,-0
 .00000001,0.00000020,-0.00000004,0.00000004,0.00000025,-0.00000037,-0.
 00000007,0.00000002,-0.00000002,-0.00000003,0.00000026,0.00000008,0.00
 000015,0.00000008,-0.00000086,-0.00000151,-0.00000148,0.00000059,0.000
 00025,0.00000106,-0.00000096,0.00000061,-0.00000012,0.00000013,0.00000
 218,-0.00000055,0.00005322,0.00002978,-0.00004730,-0.00004615,-0.00034
 657,-0.00008851,-0.00001305,0.00000841,0.00006271,-0.00037993,0.002977
 64,0.00065099,-0.00171174,0.00729622,0.00238922,-0.00567264,-0.0070601
 9,-0.00644667,-0.00137656,-0.00365743,-0.00002632,0.00042779,0.0000421
 1,-0.00029943,-0.00014818,0.00022050,-0.00015743,-0.00076462,0.0002138
 9,0.00039675,-0.01122818,-0.06716368,0.00669952,0.00679901,0.00035858,
 0.00169084,0.00022590,-0.00013315,0.00107253,-0.00066760,0.00067111,-0
 .00024158,-0.00028337,-0.00036839,0.00010768,-0.00284685,0.58793603,-0
 .00002029,0.00000827,0.00001700,-0.00000319,-0.00000331,0.00000314,-0.
 00000910,0.00001734,-0.00000833,-0.00007520,-0.00005641,-0.00002570,0.
 00004564,0.00001458,-0.00002339,-0.00000194,-0.00000315,-0.00000144,-0
 .00003685,0.00005290,-0.00002487,0.00000662,0.00000280,-0.00000041,0.0
 0001698,-0.00001253,-0.00000960,0.00014839,-0.00005212,-0.00000243,0.0
 0002406,-0.00000475,0.00000878,0.00014855,0.00004354,0.00008093,0.0000
 0015,0.00000069,0.00000035,0.00000281,0.00000044,-0.00000006,-0.000001
 47,-0.00000028,-0.00000067,0.00000104,-0.00000173,-0.00000239,0.000002
 63,-0.00000084,-0.00000166,-0.00000100,0.00000422,0.00000137,0.0000002
 9,0.00000051,-0.00000018,-0.00000736,-0.00000240,0.00000179,0.00000927
 ,0.00001735,0.00002665,-0.00000465,0.00000062,-0.00001002,0.00001051,-
 0.00000571,0.00000338,-0.00000218,-0.00002639,0.00001036,-0.00012811,0
 .00026401,0.00007404,0.00153169,0.00042161,-0.00078535,-0.00015677,-0.
 00020906,-0.00018662,-0.00266232,-0.00063172,0.00240068,0.01302724,0.0
 0320448,0.00018984,0.00029374,-0.00467062,0.01748330,0.00188469,-0.000
 88666,-0.00062025,0.00053135,0.00012112,-0.00028961,-0.00043451,0.0002
 7920,-0.00074217,-0.00027309,0.00076474,0.00000614,-0.04949946,0.00921
 588,-0.13394147,-0.02789759,-0.00337878,-0.02104327,-0.00011277,0.0001
 0997,-0.00018170,-0.00299915,-0.00027997,0.00036102,-0.00066064,0.0020
 2410,-0.00423165,-0.05589519,-0.01322113,0.62113502,0.00000674,-0.0000
 0281,-0.00000545,0.00000047,0.00000074,-0.00000143,0.00000277,-0.00000
 635,0.00000310,0.00002402,0.00001750,0.00000761,-0.00001502,-0.0000037
 1,0.00000715,0.00000044,0.00000097,0.00000042,0.00001302,-0.00001989,0
 .00000938,-0.00000186,-0.00000065,0.00000015,-0.00000446,0.00000501,0.
 00000331,-0.00004813,0.00001939,0.00000131,-0.00000725,0.00000220,-0.0
 0000251,-0.00005285,-0.00001462,-0.00002860,-0.00000001,-0.00000024,-0
 .00000009,-0.00000094,-0.00000011,0.00000007,0.00000040,0.,0.00000020,
 -0.00000045,0.00000054,0.00000085,-0.00000084,0.00000034,0.00000063,-0
 .00000035,-0.00000161,-0.00000034,-0.00000023,0.00000008,0.00000006,0.
 00000208,0.00000053,-0.00000054,-0.00000412,-0.00000684,-0.00000865,0.
 00000146,-0.00000018,0.00000286,-0.00000381,0.00000228,-0.00000136,0.0
 0000059,0.00000872,-0.00000388,0.00005685,-0.00008214,-0.00003571,-0.0
 0050214,-0.00020326,0.00020879,0.00004796,0.00007307,0.00007598,0.0008
 5828,0.00085326,-0.00052937,-0.00385839,0.00058263,0.00020203,0.002790
 02,-0.00150502,-0.00504490,-0.00009936,-0.00010204,0.00013671,-0.00009
 518,-0.00013152,0.00001989,0.00001612,-0.00006342,0.00008714,-0.000006
 44,0.00001256,0.00004909,-0.02686767,-0.02948573,0.00558319,0.00032157
 ,-0.00024107,0.00205598,-0.00006078,0.00023511,-0.00022613,0.00025520,
 0.00012874,-0.00017332,0.00004871,-0.00001718,0.00007684,-0.08966087,-
 0.09297954,0.02384412,0.10848523,0.00000131,-0.00000061,-0.00000085,0.
 00000042,0.00000024,-0.00000008,0.00000048,-0.00000076,0.00000047,0.00
 000412,0.00000302,0.00000131,-0.00000255,-0.00000061,0.00000113,0.0000
 0029,0.00000015,-0.00000001,0.00000129,-0.00000272,0.00000085,-0.00000
 055,-0.00000009,-0.00000011,-0.00000137,0.00000028,0.00000041,-0.00000
 740,0.00000213,-0.00000037,-0.00000147,-0.00000003,-0.00000057,-0.0000
 0684,-0.00000152,-0.00000358,0.00000008,-0.00000010,0.00000002,-0.0000
 0024,0.00000004,0.00000009,0.00000015,-0.00000005,0.00000005,0.0000000
 7,0.00000007,0.00000023,-0.00000024,0.00000011,0.00000009,0.00000029,-
 0.00000008,-0.00000010,0.00000014,0.00000012,-0.00000005,0.00000048,0.
 00000019,-0.00000006,0.00000002,-0.00000071,-0.00000093,0.00000045,0.0
 0000006,0.00000062,-0.00000062,0.00000015,-0.00000019,0.00000040,0.000
 00110,-0.00000016,0.00000598,-0.00001062,-0.00000251,-0.00005310,-0.00
 000841,0.00002061,0.00000813,0.00000876,0.00000597,0.00015077,-0.00002
 688,-0.00008625,-0.00015144,-0.00031569,-0.00025282,0.00173370,0.00034
 698,-0.00059908,0.00005131,0.00002252,0.00006497,-0.00000875,-0.000074
 44,-0.00002100,0.00002986,-0.00002051,0.00000092,0.00001172,-0.0000089
 7,-0.00000921,-0.00189953,0.00384091,-0.00019226,-0.00030942,0.0009066
 5,0.00058394,-0.00012308,-0.00032999,-0.00053272,0.00024345,-0.0000842
 9,-0.00027894,0.00011450,-0.00005816,-0.00006027,-0.10133558,-0.266880
 59,0.05710176,0.10960321,0.28072974,0.00000385,-0.00000152,-0.00000285
 ,0.00000113,0.00000111,-0.00000009,0.00000211,-0.00000282,0.00000193,0
 .00001508,0.00001191,0.00000556,-0.00000893,-0.00000340,0.00000417,0.0
 0000055,0.00000079,0.00000054,0.00000617,-0.00000964,0.00000464,-0.000
 00158,-0.00000090,-0.00000032,-0.00000414,0.00000153,0.00000119,-0.000
 02831,0.00000813,-0.00000132,-0.00000486,0.00000026,-0.00000228,-0.000
 02804,-0.00000899,-0.00001630,-0.00000007,-0.00000014,-0.00000007,-0.0
 0000046,-0.00000013,-0.00000004,0.00000031,0.00000021,0.00000023,-0.00
 000014,0.00000038,0.00000037,-0.00000056,0.00000012,0.00000022,0.00000
 075,-0.00000064,-0.00000014,-0.00000012,-0.00000025,0.00000010,0.00000
 142,0.00000077,-0.00000021,-0.00000078,-0.00000272,-0.00000427,0.00000
 104,0.00000017,0.00000231,-0.00000223,0.00000091,-0.00000051,0.0000005
 9,0.00000534,-0.00000174,0.00003210,-0.00004073,-0.00001742,-0.0002778
 0,-0.00013608,0.00013957,0.00002806,0.00003425,0.00004714,0.00057527,0
 .00057582,-0.00034534,-0.00301018,0.00033031,-0.00034910,0.00205142,-0
 .00027332,-0.00254023,0.00085779,0.00009306,-0.00043110,0.00005526,0.0
 0031181,0.00012649,0.00016505,-0.00008249,0.00020374,-0.00000651,-0.00
 035399,0.00019670,-0.01428254,-0.01621551,0.00321432,-0.00035736,-0.00
 121356,0.00033802,0.00002442,0.00020249,0.00034230,-0.00027139,-0.0003
 5702,-0.00037429,0.00011708,0.00008831,0.00018900,0.02929463,0.0619227
 2,-0.06582133,-0.02260840,-0.06220600,0.06585004,0.00000049,-0.0000002
 4,-0.00000076,-0.00000045,-0.00000036,-0.00000036,-0.00000013,-0.00000
 083,0.00000012,0.00000087,0.00000008,-0.00000076,-0.00000044,0.0000002
 3,0.00000083,-0.00000004,-0.00000006,-0.00000008,0.00000060,-0.0000006
 2,-0.00000014,0.00000010,0.00000022,0.00000028,0.00000079,0.00000091,0
 .00000063,-0.00000166,0.00000194,0.00000210,-0.00000022,0.00000047,0.0
 0000022,-0.00000298,-0.00000056,-0.00000167,-0.00000004,-0.00000005,0.
 ,-0.00000010,0.00000002,0.00000002,0.,-0.00000008,-0.00000003,-0.00000
 015,0.00000007,0.00000016,0.00000003,0.00000006,0.00000011,-0.00000042
 ,-0.00000022,-0.00000009,-0.00000009,0.00000011,-0.00000015,0.00000013
 ,-0.00000009,-0.00000010,-0.00000110,-0.00000026,-0.00000161,0.0000004
 1,-0.00000037,0.00000037,-0.00000028,0.00000007,0.00000010,0.00000024,
 0.00000084,-0.00000042,0.00000156,-0.00000846,-0.00000332,-0.00006235,
 -0.00002910,0.00004665,0.00000340,0.,0.00000856,0.00018136,0.00011107,
 -0.00008012,-0.00068020,0.00007284,-0.00007652,0.00285614,0.00059639,-
 0.00196534,-0.00354974,-0.00195557,0.00096409,-0.00088012,-0.00022716,
 0.00081412,-0.00005431,0.00011533,-0.00010608,-0.00181112,-0.00062072,
 0.00074449,0.00146945,0.00357331,-0.03558778,-0.00457631,-0.00173227,-
 0.00065475,-0.00005642,0.00008727,-0.00028201,0.00017153,-0.00006507,0
 .00002421,-0.00004489,0.00051243,-0.00133984,-0.05766765,-0.00346398,0
 .04840338,-0.00119768,0.00126037,0.01227316,0.06699682,0.00000023,0.00
 000012,0.00000023,0.00000117,0.00000130,0.00000093,0.00000141,0.000001
 02,0.00000047,0.00000355,0.00000401,0.00000164,-0.00000188,-0.00000245
 ,0.00000050,0.00000050,0.00000053,0.00000025,-0.00000033,0.00000212,-0
 .00000050,-0.00000086,-0.00000096,-0.00000041,-0.00000280,-0.00000202,
 -0.00000084,-0.00000362,-0.00000530,-0.00000204,-0.00000146,-0.0000014
 9,-0.00000109,0.00000133,-0.00000269,0.00000046,-0.00000014,-0.0000002
 0,0.00000002,-0.00000003,-0.00000006,-0.00000005,0.00000014,0.00000030
 ,0.00000017,0.00000017,0.00000021,-0.00000010,-0.00000017,-0.00000012,
 -0.00000026,0.00000142,0.00000047,0.00000001,0.00000004,-0.00000033,0.
 00000008,0.00000046,0.00000089,-0.00000008,0.00000186,0.00000163,0.000
 00036,-0.00000001,0.00000039,0.00000038,-0.00000012,-0.00000040,-0.000
 00014,-0.00000002,0.00000123,0.,0.00000359,0.00000550,0.00000312,-0.00
 000120,-0.00000939,0.00000231,0.00000141,0.00000199,0.00000186,0.00002
 593,-0.00001919,-0.00003932,-0.00022571,-0.00008895,-0.00010885,0.0002
 6363,0.00092419,-0.00019743,-0.00114479,-0.00136031,0.00042461,0.00012
 422,0.00024666,-0.00018470,0.00000057,-0.00002417,-0.00003412,-0.00203
 102,-0.00064877,0.00050328,0.00020140,-0.00231532,-0.00174153,0.000141
 45,0.00107345,0.00034136,-0.00019941,-0.00006272,-0.00024432,-0.000009
 41,0.00003638,0.00001639,-0.00000429,-0.00002034,0.00008111,-0.0018972
 6,-0.04925128,0.01896861,-0.00257279,0.00081889,0.02751024,0.00535191,
 0.04715704,0.00000055,-0.00000024,-0.00000052,0.00000018,0.00000007,-0
 .00000013,0.00000020,-0.00000014,-0.00000005,0.00000200,0.00000128,-0.
 00000007,-0.00000129,-0.00000057,0.00000108,-0.00000004,0.00000021,-0.
 00000032,0.00000046,0.00000015,-0.00000029,-0.00000008,-0.00000020,0.0
 0000030,-0.00000068,0.00000002,0.00000041,-0.00000324,0.00000075,0.000
 00056,-0.00000074,-0.00000008,0.00000005,-0.00000157,-0.00000045,-0.00
 000072,0.00000002,-0.00000021,0.00000006,-0.00000014,0.00000003,0.0000
 0011,0.,0.00000004,0.,-0.00000001,0.00000004,0.00000024,-0.00000010,0.
 00000007,0.00000004,0.00000016,0.00000005,-0.00000013,0.00000014,-0.00
 000011,-0.00000008,0.00000031,0.00000022,-0.00000019,-0.00000014,0.000
 00003,-0.00000081,0.00000006,-0.00000008,0.00000025,-0.00000020,-0.000
 00012,-0.00000005,0.00000015,0.00000060,-0.00000028,-0.00000402,-0.000
 00624,-0.00000208,-0.00005445,-0.00001786,0.00008247,0.00000442,-0.000
 00614,0.00000909,0.00021031,0.00009479,-0.00013515,-0.00076930,-0.0000
 4972,-0.00009438,0.00196978,0.00073671,-0.00110255,0.00254696,0.001363
 29,-0.00105844,0.00058781,0.00043000,-0.00011795,0.00046588,-0.0001639
 5,0.00043065,0.00132251,-0.00024376,0.00000452,-0.00017632,0.00154083,
 -0.01362401,-0.00179205,-0.00137488,0.00059426,-0.00009579,0.00006274,
 -0.00014508,-0.00016701,0.00005395,0.00029677,-0.00011806,0.00041074,-
 0.00048329,0.03357998,0.01740886,-0.33162229,0.00119051,0.00000507,-0.
 00339639,-0.04010162,-0.02149841,0.35685064,0.00000755,-0.00000298,-0.
 00000618,0.00000144,0.00000142,-0.00000106,0.00000357,-0.00000635,0.00
 000294,0.00002908,0.00002261,0.00001001,-0.00001733,-0.00000638,0.0000
 0901,0.00000070,0.00000146,0.00000042,0.00001339,-0.00001938,0.0000095
 7,-0.00000242,-0.00000136,0.00000015,-0.00000679,0.00000446,0.00000353
 ,-0.00005768,0.00001952,0.00000070,-0.00000915,0.00000133,-0.00000343,
 -0.00005684,-0.00001865,-0.00003092,-0.00000002,-0.00000044,-0.0000000
 6,-0.00000107,-0.00000017,0.00000007,0.00000041,0.00000024,0.00000029,
 -0.00000037,0.00000064,0.00000096,-0.00000103,0.00000030,0.00000059,0.
 00000055,-0.00000142,-0.00000052,-0.00000012,-0.00000020,0.00000011,0.
 00000273,0.00000119,-0.00000062,-0.00000365,-0.00000686,-0.00000964,0.
 00000191,0.00000006,0.00000401,-0.00000401,0.00000226,-0.00000160,0.00
 000018,0.00001045,-0.00000386,0.00004722,-0.00010630,-0.00002571,-0.00
 057069,-0.00011967,0.00027064,0.00006062,0.00008751,0.00006598,0.00117
 342,-0.00015027,-0.00087974,-0.00395836,-0.00175343,-0.00061188,0.0036
 5814,0.00445813,-0.00362256,0.00001375,0.00027806,0.00028712,-0.000000
 55,-0.00007277,0.00009243,-0.00000490,-0.00003592,0.00010164,-0.000163
 57,0.00001013,0.00011657,-0.03274357,0.01911278,0.00664208,-0.00009627
 ,-0.00085270,0.00197332,0.00017270,0.00017236,-0.00016896,0.00041114,0
 .00003666,-0.00031694,0.00005125,0.00000188,-0.00003846,-0.13210060,0.
 11409252,0.05094967,0.00955688,-0.00932079,-0.00461283,-0.00109504,0.0
 0197092,0.00140446,0.15568739,-0.00000033,0.00000011,-0.00000011,-0.00
 000037,-0.00000037,-0.00000028,-0.00000025,-0.00000042,-0.00000025,-0.
 00000049,-0.00000072,-0.00000048,0.00000050,0.00000008,0.00000011,-0.0
 0000021,-0.00000012,-0.00000002,0.00000008,0.00000010,-0.00000010,0.00
 000032,0.00000007,0.00000026,0.00000070,0.00000062,0.00000035,-0.00000
 028,0.00000113,0.00000088,0.00000048,0.00000031,0.00000036,-0.00000033
 ,-0.00000039,-0.00000026,-0.00000005,0.00000012,-0.00000007,0.00000007
 ,-0.00000003,-0.00000006,-0.00000009,0.00000004,-0.00000006,-0.0000001
 0,0.00000001,-0.00000005,0.00000009,-0.00000003,0.00000007,-0.00000046
 ,-0.00000008,0.00000005,-0.00000007,0.00000004,-0.00000003,-0.00000014
 ,-0.00000015,-0.00000003,-0.00000085,-0.00000016,-0.00000042,-0.000000
 18,-0.00000026,-0.00000007,0.00000019,0.00000008,0.00000017,-0.0000002
 4,0.00000015,-0.00000033,-0.00000262,-0.00000554,0.00000139,-0.0000252
 0,0.00000679,0.00002491,0.00000082,0.00000293,0.00000025,0.00002757,-0
 .00013297,-0.00007763,-0.00023743,-0.00065760,-0.00018918,-0.00143931,
 0.00051667,0.00044636,0.00004428,0.00019808,-0.00043197,0.00011091,0.0
 0001407,-0.00003093,0.00000771,-0.00004801,-0.00000217,0.00026519,-0.0
 0017930,-0.00001694,-0.00315911,0.00789658,0.00293372,0.00004745,0.000
 04435,0.00003908,-0.00006283,-0.00009859,-0.00006501,0.00008078,-0.000
 13048,0.00033315,-0.00012095,-0.00004300,0.00007482,0.11996159,-0.2048
 9033,-0.06919115,0.01589386,-0.01885629,-0.01019083,-0.00357984,0.0035
 3814,0.00125265,-0.12781085,0.21282436,0.00000395,-0.00000178,-0.00000
 308,0.00000035,0.00000029,-0.00000077,0.00000147,-0.00000373,0.0000017
 6,0.00001369,0.00001039,0.00000541,-0.00000851,-0.00000187,0.00000387,
 0.00000047,0.00000036,0.00000055,0.00000718,-0.00001203,0.00000568,-0.
 00000134,-0.00000016,-0.00000029,-0.00000266,0.00000321,0.00000178,-0.
 00002904,0.00001276,0.00000035,-0.00000427,0.00000147,-0.00000177,-0.0
 0002995,-0.00000733,-0.00001639,0.00000005,0.00000008,-0.00000009,-0.0
 0000049,-0.00000009,0.,0.00000036,-0.00000008,0.00000016,-0.00000022,0
 .00000026,0.00000037,-0.00000049,0.00000017,0.00000039,-0.00000017,-0.
 00000104,-0.00000012,-0.00000016,0.00000005,0.00000002,0.00000117,0.00
 000014,-0.00000013,-0.00000256,-0.00000443,-0.00000493,0.00000078,0.00
 000013,0.00000207,-0.00000215,0.00000130,-0.00000077,0.00000079,0.0000
 0462,-0.00000167,0.00001970,-0.00005762,-0.00001656,-0.00030006,-0.000
 04311,0.00015400,0.00003330,0.00003982,0.00003405,0.00064387,-0.000131
 77,-0.00045966,-0.00243606,-0.00089154,-0.00057516,0.00209026,0.001554
 09,-0.00145243,0.00012485,0.00066098,0.00032839,-0.00022317,-0.0001812
 6,0.00029624,0.00007172,-0.00000058,0.00006281,0.00017062,-0.00014025,
 -0.00005938,-0.01622630,0.01320124,0.00526749,-0.00058921,0.00030748,0
 .00139560,0.00016078,-0.00011625,0.00005673,0.00037985,-0.00003538,-0.
 00004359,0.00002161,-0.00004527,0.00018907,0.05569804,-0.07186857,-0.0
 8222695,-0.00489670,0.00645961,0.00263676,0.01691996,-0.02380418,-0.00
 648624,-0.05161131,0.07508986,0.08090642\\0.00000381,0.00000219,-0.000
 00635,-0.00000425,-0.00000876,-0.00000969,-0.00000282,0.00000438,0.000
 00405,0.00001662,0.00001379,-0.00000268,-0.00001095,-0.00000362,0.0000
 0453,-0.00000306,0.00000197,-0.00000443,-0.00000063,-0.00000400,-0.000
 00454,0.00000102,-0.00000493,-0.00000795,0.00000846,0.00000418,0.00000
 193,-0.00001144,-0.00000272,-0.00000433,0.00000139,-0.00000046,-0.0000
 0502,0.00001058,0.00000979,0.00000775,0.00000050,-0.00000045,-0.000005
 40,-0.00000297,-0.00000142,-0.00000585,-0.00000342,0.00000778,-0.00000
 482,-0.00000088,-0.00000137,-0.00000295,0.00000086,0.00000172,-0.00000
 284,-0.00000289,-0.00000074,0.00000017,0.00000152,0.00000077,-0.000001
 28,0.00000120,0.00000152,-0.00000328,-0.00000045,0.00000087,-0.0000002
 1,0.00000145,-0.00000159,-0.00000322,-0.00000077,0.00000204,-0.0000018
 1,-0.00000333,-0.00000257,-0.00000976,-0.00000397,-0.00000836,0.000003
 57,0.00000239,0.00000776,0.00000300,-0.00001461,0.00000929,0.00000108,
 0.00001715,-0.00000755,-0.00000683,-0.00000389,-0.00000351,0.00000003,
 0.00000107,-0.00000233,0.00000382,-0.00000281,0.00000604,0.00000849,-0
 .00000499,-0.00000572,0.00000070,-0.00000103,-0.00000483,0.00000297,-0
 .00000298,-0.00000296,0.00000009,0.00000656,0.00000674,0.00000034,0.00
 000229,0.00000754,0.00001700,-0.00000014,-0.00000078,0.00000240,-0.000
 00027,-0.00000342,0.00000442,-0.00000020,-0.00000303,0.00000304,0.0000
 0005,-0.00000021,0.00001058,0.00000152,-0.00000392,0.00000503,0.000004
 69,-0.00000385,0.00000197,-0.00000036,-0.00000523,0.00000629\\\@


 Everywhere is walking distance if you have the time.
                                    -- Steven Wright
 Job cpu time:       0 days 17 hours 42 minutes 16.9 seconds.
 Elapsed time:       0 days  0 hours 44 minutes 19.3 seconds.
 File lengths (MBytes):  RWF=   1450 Int=      0 D2E=      0 Chk=     39 Scr=      1
 Normal termination of Gaussian 16 at Thu Dec 13 03:17:53 2018.
