 Entering Gaussian System, Link 0=g16
 Initial command:
 /nopt/nrel/apps/gaussian/G16.sandy/g16/l1.exe "/scratch/ykim/gaussianScratch.6086217/Gau-50387.inp" -scrdir="/scratch/ykim/gaussianScratch.6086217/"
 Default linda workers: n0431
 Default is to use  24 SMP processors on each worker.
 Entering Link 1 = /nopt/nrel/apps/gaussian/G16.sandy/g16/l1.exe PID=     50388.
  
 Copyright (c) 1988,1990,1992,1993,1995,1998,2003,2009,2016,
            Gaussian, Inc.  All Rights Reserved.
  
 This is part of the Gaussian(R) 16 program.  It is based on
 the Gaussian(R) 09 system (copyright 2009, Gaussian, Inc.),
 the Gaussian(R) 03 system (copyright 2003, Gaussian, Inc.),
 the Gaussian(R) 98 system (copyright 1998, Gaussian, Inc.),
 the Gaussian(R) 94 system (copyright 1995, Gaussian, Inc.),
 the Gaussian 92(TM) system (copyright 1992, Gaussian, Inc.),
 the Gaussian 90(TM) system (copyright 1990, Gaussian, Inc.),
 the Gaussian 88(TM) system (copyright 1988, Gaussian, Inc.),
 the Gaussian 86(TM) system (copyright 1986, Carnegie Mellon
 University), and the Gaussian 82(TM) system (copyright 1983,
 Carnegie Mellon University). Gaussian is a federally registered
 trademark of Gaussian, Inc.
  
 This software contains proprietary and confidential information,
 including trade secrets, belonging to Gaussian, Inc.
  
 This software is provided under written license and may be
 used, copied, transmitted, or stored only in accord with that
 written license.
  
 The following legend is applicable only to US Government
 contracts under FAR:
  
                    RESTRICTED RIGHTS LEGEND
  
 Use, reproduction and disclosure by the US Government is
 subject to restrictions as set forth in subparagraphs (a)
 and (c) of the Commercial Computer Software - Restricted
 Rights clause in FAR 52.227-19.
  
 Gaussian, Inc.
 340 Quinnipiac St., Bldg. 40, Wallingford CT 06492
  
  
 ---------------------------------------------------------------
 Warning -- This program may not be used in any manner that
 competes with the business of Gaussian, Inc. or will provide
 assistance to any competitor of Gaussian, Inc.  The licensee
 of this program is prohibited from giving any competitor of
 Gaussian, Inc. access to this program.  By using this program,
 the user acknowledges that Gaussian, Inc. is engaged in the
 business of creating and licensing software in the field of
 computational chemistry and represents and warrants to the
 licensee that it is not a competitor of Gaussian, Inc. and that
 it will not use this program in any manner prohibited above.
 ---------------------------------------------------------------
  

 Cite this work as:
 Gaussian 16, Revision A.03,
 M. J. Frisch, G. W. Trucks, H. B. Schlegel, G. E. Scuseria, 
 M. A. Robb, J. R. Cheeseman, G. Scalmani, V. Barone, 
 G. A. Petersson, H. Nakatsuji, X. Li, M. Caricato, A. V. Marenich, 
 J. Bloino, B. G. Janesko, R. Gomperts, B. Mennucci, H. P. Hratchian, 
 J. V. Ortiz, A. F. Izmaylov, J. L. Sonnenberg, D. Williams-Young, 
 F. Ding, F. Lipparini, F. Egidi, J. Goings, B. Peng, A. Petrone, 
 T. Henderson, D. Ranasinghe, V. G. Zakrzewski, J. Gao, N. Rega, 
 G. Zheng, W. Liang, M. Hada, M. Ehara, K. Toyota, R. Fukuda, 
 J. Hasegawa, M. Ishida, T. Nakajima, Y. Honda, O. Kitao, H. Nakai, 
 T. Vreven, K. Throssell, J. A. Montgomery, Jr., J. E. Peralta, 
 F. Ogliaro, M. J. Bearpark, J. J. Heyd, E. N. Brothers, K. N. Kudin, 
 V. N. Staroverov, T. A. Keith, R. Kobayashi, J. Normand, 
 K. Raghavachari, A. P. Rendell, J. C. Burant, S. S. Iyengar, 
 J. Tomasi, M. Cossi, J. M. Millam, M. Klene, C. Adamo, R. Cammi, 
 J. W. Ochterski, R. L. Martin, K. Morokuma, O. Farkas, 
 J. B. Foresman, and D. J. Fox, Gaussian, Inc., Wallingford CT, 2016.
 
 ******************************************
 Gaussian 16:  ES64L-G16RevA.03 25-Dec-2016
                12-Dec-2018 
 ******************************************
 %nprocshared=24
 Will use up to   24 processors via shared memory.
 %mem=24GB
 SetLPE:    new flags="-opt 'Tsnet.Node.lindarsharg: ssh'  -nodelist 'n0431' -env GAUSS_MDEF=3221225472 -env GAUSS_EXEDIR="/nopt/nrel/apps/gaussian/G16.sandy/g16/bsd:/nopt/nrel/apps/gaussian/G16.sandy/g16/local:/nopt/nrel/apps/gaussian/G16.sandy/g16/extras:/nopt/nrel/apps/gaussian/G16.sandy/g16""
 Will use up to    1 processors via Linda.
 Default route: CacheSize=327680 MaxDisk=128GB
 ----------------------------------------------------------------------
 # opt freq m062x/6-311++g(d,p) scrf=(solvent=2-propanol,smd) scf=(xqc,
 maxconventionalcycles=400) temperature=443.15
 ----------------------------------------------------------------------
 1/4=327680,18=20,19=15,26=3,38=1,112=443150/1,3;
 2/4=327680,9=110,12=2,17=6,18=5,40=1/2;
 3/4=327680,5=4,6=6,7=1111,11=2,25=1,30=1,70=32201,71=1,72=73,74=-55/1,2,3;
 4/4=327680/1;
 5/4=327680,5=2,8=3,13=1,38=5,53=73,85=400/2,8;
 6/4=327680,7=2,8=2,9=2,10=2,28=1/1;
 7/4=327680/1,2,3,16;
 1/4=327680,18=20,19=15,26=3/3(2);
 2/4=327680,9=110/2;
 99/4=327680/99;
 2/4=327680,9=110/2;
 3/4=327680,5=4,6=6,7=1111,11=2,25=1,30=1,70=32205,71=1,72=73,74=-55/1,2,3;
 4/4=327680,5=5,16=3,69=1/1;
 5/4=327680,5=2,8=3,13=1,38=5,53=73,85=400/2,8;
 7/4=327680/1,2,3,16;
 1/4=327680,18=20,19=15,26=3/3(-5);
 2/4=327680,9=110/2;
 6/4=327680,7=2,8=2,9=2,10=2,19=2,28=1/1;
 99/4=327680,9=1/99;
 -------------------
 Title Card Required
 -------------------
 Symbolic Z-matrix:
 Charge =  1 Multiplicity = 1
 C                     1.86245   0.31865  -1.02857 
 C                     1.94165   1.2297    0.20745 
 C                     0.99499   0.55868   1.21511 
 C                    -0.07012  -0.01895   0.26043 
 O                     0.67016  -0.47745  -0.85378 
 C                     3.042    -0.60472  -1.22311 
 C                    -0.86179  -1.18698   0.82029 
 O                     3.19616  -1.4104   -0.05668 
 O                     1.43459   2.50491  -0.17969 
 O                    -0.97371   1.00015  -0.128 
 O                     1.64086  -0.42978   1.98547 
 O                    -1.73174  -1.76631  -0.15589 
 H                     2.86439  -1.23823  -2.09638 
 H                     3.93499   0.00091  -1.39732 
 H                     4.06553  -1.82509  -0.06728 
 H                     1.75443   0.93675  -1.92332 
 H                     2.95609   1.31261   0.60274 
 H                     1.47477   3.09403   0.5841 
 H                     0.55306   1.28303   1.8991 
 H                     2.23006  -0.94037   1.39968 
 H                    -0.46813   1.80042  -0.34472 
 H                    -1.49241  -0.83801   1.63788 
 H                    -0.17215  -1.94525   1.18716 
 H                    -1.1997   -2.14399  -0.8694 
 H                    -2.70623   0.73409  -0.78164 
 O                    -3.33565   0.01132  -0.99033 
 H                    -2.81346  -0.81055  -0.68604 
 H                    -4.22026   0.12393  -0.44577 
 O                    -5.47824   0.22714   0.25859 
 H                    -5.51701   0.69858   1.10046 
 C                    -6.50435   0.80214  -0.55466 
 H                    -6.2383    1.80742  -0.80674 
 C                    -6.66208  -0.02571  -1.84361 
 H                    -6.92973  -1.03057  -1.5916 
 H                    -7.42874   0.40549  -2.45287 
 H                    -5.73735  -0.02723  -2.38192 
 C                    -7.83458   0.80239   0.22128 
 H                    -7.74185   1.42305   1.08793 
 H                    -8.61378   1.18091  -0.40679 
 H                    -8.07236  -0.19663   0.52182 
 
 Add virtual bond connecting atoms O29        and H28        Dist= 2.73D+00.
 Add virtual bond connecting atoms H27        and O12        Dist= 2.91D+00.

 GradGradGradGradGradGradGradGradGradGradGradGradGradGradGradGradGradGrad
 Berny optimization.
 Initialization pass.
                           ----------------------------
                           !    Initial Parameters    !
                           ! (Angstroms and Degrees)  !
 --------------------------                            --------------------------
 ! Name  Definition              Value          Derivative Info.                !
 --------------------------------------------------------------------------------
 ! R1    R(1,2)                  1.5375         estimate D2E/DX2                !
 ! R2    R(1,5)                  1.4443         estimate D2E/DX2                !
 ! R3    R(1,6)                  1.5106         estimate D2E/DX2                !
 ! R4    R(1,16)                 1.0928         estimate D2E/DX2                !
 ! R5    R(2,3)                  1.5368         estimate D2E/DX2                !
 ! R6    R(2,9)                  1.4259         estimate D2E/DX2                !
 ! R7    R(2,17)                 1.0919         estimate D2E/DX2                !
 ! R8    R(3,4)                  1.5426         estimate D2E/DX2                !
 ! R9    R(3,11)                 1.4098         estimate D2E/DX2                !
 ! R10   R(3,19)                 1.0899         estimate D2E/DX2                !
 ! R11   R(4,5)                  1.4141         estimate D2E/DX2                !
 ! R12   R(4,7)                  1.5181         estimate D2E/DX2                !
 ! R13   R(4,10)                 1.4163         estimate D2E/DX2                !
 ! R14   R(6,8)                  1.426          estimate D2E/DX2                !
 ! R15   R(6,13)                 1.0934         estimate D2E/DX2                !
 ! R16   R(6,14)                 1.093          estimate D2E/DX2                !
 ! R17   R(7,12)                 1.4302         estimate D2E/DX2                !
 ! R18   R(7,22)                 1.0899         estimate D2E/DX2                !
 ! R19   R(7,23)                 1.0887         estimate D2E/DX2                !
 ! R20   R(8,15)                 0.9633         estimate D2E/DX2                !
 ! R21   R(9,18)                 0.9654         estimate D2E/DX2                !
 ! R22   R(10,21)                0.9711         estimate D2E/DX2                !
 ! R23   R(11,20)                0.9752         estimate D2E/DX2                !
 ! R24   R(12,24)                0.9669         estimate D2E/DX2                !
 ! R25   R(12,27)                1.5377         estimate D2E/DX2                !
 ! R26   R(25,26)                0.9809         estimate D2E/DX2                !
 ! R27   R(26,27)                1.0202         estimate D2E/DX2                !
 ! R28   R(26,28)                1.0449         estimate D2E/DX2                !
 ! R29   R(28,29)                1.4454         estimate D2E/DX2                !
 ! R30   R(29,30)                0.9657         estimate D2E/DX2                !
 ! R31   R(29,31)                1.43           estimate D2E/DX2                !
 ! R32   R(31,32)                1.07           estimate D2E/DX2                !
 ! R33   R(31,33)                1.54           estimate D2E/DX2                !
 ! R34   R(31,37)                1.54           estimate D2E/DX2                !
 ! R35   R(33,34)                1.07           estimate D2E/DX2                !
 ! R36   R(33,35)                1.07           estimate D2E/DX2                !
 ! R37   R(33,36)                1.07           estimate D2E/DX2                !
 ! R38   R(37,38)                1.07           estimate D2E/DX2                !
 ! R39   R(37,39)                1.07           estimate D2E/DX2                !
 ! R40   R(37,40)                1.07           estimate D2E/DX2                !
 ! A1    A(2,1,5)              105.7743         estimate D2E/DX2                !
 ! A2    A(2,1,6)              115.1836         estimate D2E/DX2                !
 ! A3    A(2,1,16)             109.156          estimate D2E/DX2                !
 ! A4    A(5,1,6)              108.8609         estimate D2E/DX2                !
 ! A5    A(5,1,16)             109.2229         estimate D2E/DX2                !
 ! A6    A(6,1,16)             108.5103         estimate D2E/DX2                !
 ! A7    A(1,2,3)              103.6889         estimate D2E/DX2                !
 ! A8    A(1,2,9)              107.0582         estimate D2E/DX2                !
 ! A9    A(1,2,17)             112.574          estimate D2E/DX2                !
 ! A10   A(3,2,9)              110.4547         estimate D2E/DX2                !
 ! A11   A(3,2,17)             111.5969         estimate D2E/DX2                !
 ! A12   A(9,2,17)             111.1475         estimate D2E/DX2                !
 ! A13   A(2,3,4)              100.5461         estimate D2E/DX2                !
 ! A14   A(2,3,11)             112.4707         estimate D2E/DX2                !
 ! A15   A(2,3,19)             111.7822         estimate D2E/DX2                !
 ! A16   A(4,3,11)             113.0756         estimate D2E/DX2                !
 ! A17   A(4,3,19)             110.9342         estimate D2E/DX2                !
 ! A18   A(11,3,19)            107.9879         estimate D2E/DX2                !
 ! A19   A(3,4,5)              104.335          estimate D2E/DX2                !
 ! A20   A(3,4,7)              114.8319         estimate D2E/DX2                !
 ! A21   A(3,4,10)             109.9266         estimate D2E/DX2                !
 ! A22   A(5,4,7)              108.3072         estimate D2E/DX2                !
 ! A23   A(5,4,10)             110.5607         estimate D2E/DX2                !
 ! A24   A(7,4,10)             108.7879         estimate D2E/DX2                !
 ! A25   A(1,5,4)              110.4137         estimate D2E/DX2                !
 ! A26   A(1,6,8)              108.9317         estimate D2E/DX2                !
 ! A27   A(1,6,13)             109.2809         estimate D2E/DX2                !
 ! A28   A(1,6,14)             108.651          estimate D2E/DX2                !
 ! A29   A(8,6,13)             110.0909         estimate D2E/DX2                !
 ! A30   A(8,6,14)             110.8009         estimate D2E/DX2                !
 ! A31   A(13,6,14)            109.055          estimate D2E/DX2                !
 ! A32   A(4,7,12)             112.1588         estimate D2E/DX2                !
 ! A33   A(4,7,22)             109.3924         estimate D2E/DX2                !
 ! A34   A(4,7,23)             109.2594         estimate D2E/DX2                !
 ! A35   A(12,7,22)            106.8438         estimate D2E/DX2                !
 ! A36   A(12,7,23)            109.464          estimate D2E/DX2                !
 ! A37   A(22,7,23)            109.6786         estimate D2E/DX2                !
 ! A38   A(6,8,15)             109.3781         estimate D2E/DX2                !
 ! A39   A(2,9,18)             108.4291         estimate D2E/DX2                !
 ! A40   A(4,10,21)            108.7851         estimate D2E/DX2                !
 ! A41   A(3,11,20)            108.3999         estimate D2E/DX2                !
 ! A42   A(7,12,24)            109.1002         estimate D2E/DX2                !
 ! A43   A(7,12,27)            114.2959         estimate D2E/DX2                !
 ! A44   A(24,12,27)           112.0526         estimate D2E/DX2                !
 ! A45   A(25,26,27)           101.6365         estimate D2E/DX2                !
 ! A46   A(25,26,28)           110.6691         estimate D2E/DX2                !
 ! A47   A(27,26,28)           111.3906         estimate D2E/DX2                !
 ! A48   A(12,27,26)           164.4988         estimate D2E/DX2                !
 ! A49   A(28,29,30)           119.6451         estimate D2E/DX2                !
 ! A50   A(28,29,31)           112.0913         estimate D2E/DX2                !
 ! A51   A(30,29,31)           105.7053         estimate D2E/DX2                !
 ! A52   A(29,31,32)           109.4712         estimate D2E/DX2                !
 ! A53   A(29,31,33)           109.4712         estimate D2E/DX2                !
 ! A54   A(29,31,37)           109.4712         estimate D2E/DX2                !
 ! A55   A(32,31,33)           109.4712         estimate D2E/DX2                !
 ! A56   A(32,31,37)           109.4712         estimate D2E/DX2                !
 ! A57   A(33,31,37)           109.4712         estimate D2E/DX2                !
 ! A58   A(31,33,34)           109.4712         estimate D2E/DX2                !
 ! A59   A(31,33,35)           109.4712         estimate D2E/DX2                !
 ! A60   A(31,33,36)           109.4712         estimate D2E/DX2                !
 ! A61   A(34,33,35)           109.4713         estimate D2E/DX2                !
 ! A62   A(34,33,36)           109.4712         estimate D2E/DX2                !
 ! A63   A(35,33,36)           109.4712         estimate D2E/DX2                !
 ! A64   A(31,37,38)           109.4712         estimate D2E/DX2                !
 ! A65   A(31,37,39)           109.4712         estimate D2E/DX2                !
 ! A66   A(31,37,40)           109.4712         estimate D2E/DX2                !
 ! A67   A(38,37,39)           109.4713         estimate D2E/DX2                !
 ! A68   A(38,37,40)           109.4712         estimate D2E/DX2                !
 ! A69   A(39,37,40)           109.4712         estimate D2E/DX2                !
 ! A70   L(26,28,29,36,-1)     177.4908         estimate D2E/DX2                !
 ! A71   L(26,28,29,36,-2)     178.0714         estimate D2E/DX2                !
 ! D1    D(5,1,2,3)             17.2636         estimate D2E/DX2                !
 ! D2    D(5,1,2,9)            -99.5425         estimate D2E/DX2                !
 ! D3    D(5,1,2,17)           138.0291         estimate D2E/DX2                !
 ! D4    D(6,1,2,3)           -103.0037         estimate D2E/DX2                !
 ! D5    D(6,1,2,9)            140.1902         estimate D2E/DX2                !
 ! D6    D(6,1,2,17)            17.7617         estimate D2E/DX2                !
 ! D7    D(16,1,2,3)           134.6709         estimate D2E/DX2                !
 ! D8    D(16,1,2,9)            17.8649         estimate D2E/DX2                !
 ! D9    D(16,1,2,17)         -104.5636         estimate D2E/DX2                !
 ! D10   D(2,1,5,4)              7.8805         estimate D2E/DX2                !
 ! D11   D(6,1,5,4)            132.197          estimate D2E/DX2                !
 ! D12   D(16,1,5,4)          -109.4818         estimate D2E/DX2                !
 ! D13   D(2,1,6,8)             56.9839         estimate D2E/DX2                !
 ! D14   D(2,1,6,13)           177.2967         estimate D2E/DX2                !
 ! D15   D(2,1,6,14)           -63.8139         estimate D2E/DX2                !
 ! D16   D(5,1,6,8)            -61.5762         estimate D2E/DX2                !
 ! D17   D(5,1,6,13)            58.7366         estimate D2E/DX2                !
 ! D18   D(5,1,6,14)           177.6261         estimate D2E/DX2                !
 ! D19   D(16,1,6,8)           179.655          estimate D2E/DX2                !
 ! D20   D(16,1,6,13)          -60.0323         estimate D2E/DX2                !
 ! D21   D(16,1,6,14)           58.8572         estimate D2E/DX2                !
 ! D22   D(1,2,3,4)            -33.3075         estimate D2E/DX2                !
 ! D23   D(1,2,3,11)            87.2525         estimate D2E/DX2                !
 ! D24   D(1,2,3,19)          -151.0679         estimate D2E/DX2                !
 ! D25   D(9,2,3,4)             81.0912         estimate D2E/DX2                !
 ! D26   D(9,2,3,11)          -158.3488         estimate D2E/DX2                !
 ! D27   D(9,2,3,19)           -36.6692         estimate D2E/DX2                !
 ! D28   D(17,2,3,4)          -154.7304         estimate D2E/DX2                !
 ! D29   D(17,2,3,11)          -34.1704         estimate D2E/DX2                !
 ! D30   D(17,2,3,19)           87.5092         estimate D2E/DX2                !
 ! D31   D(1,2,9,18)           179.9605         estimate D2E/DX2                !
 ! D32   D(3,2,9,18)            67.7107         estimate D2E/DX2                !
 ! D33   D(17,2,9,18)          -56.7254         estimate D2E/DX2                !
 ! D34   D(2,3,4,5)             38.7504         estimate D2E/DX2                !
 ! D35   D(2,3,4,7)            157.1415         estimate D2E/DX2                !
 ! D36   D(2,3,4,10)           -79.8182         estimate D2E/DX2                !
 ! D37   D(11,3,4,5)           -81.3758         estimate D2E/DX2                !
 ! D38   D(11,3,4,7)            37.0153         estimate D2E/DX2                !
 ! D39   D(11,3,4,10)          160.0556         estimate D2E/DX2                !
 ! D40   D(19,3,4,5)           157.1325         estimate D2E/DX2                !
 ! D41   D(19,3,4,7)           -84.4764         estimate D2E/DX2                !
 ! D42   D(19,3,4,10)           38.5639         estimate D2E/DX2                !
 ! D43   D(2,3,11,20)          -41.366          estimate D2E/DX2                !
 ! D44   D(4,3,11,20)           71.6821         estimate D2E/DX2                !
 ! D45   D(19,3,11,20)        -165.18           estimate D2E/DX2                !
 ! D46   D(3,4,5,1)            -29.8085         estimate D2E/DX2                !
 ! D47   D(7,4,5,1)           -152.5679         estimate D2E/DX2                !
 ! D48   D(10,4,5,1)            88.3267         estimate D2E/DX2                !
 ! D49   D(3,4,7,12)          -173.8832         estimate D2E/DX2                !
 ! D50   D(3,4,7,22)            67.7544         estimate D2E/DX2                !
 ! D51   D(3,4,7,23)           -52.3219         estimate D2E/DX2                !
 ! D52   D(5,4,7,12)           -57.7499         estimate D2E/DX2                !
 ! D53   D(5,4,7,22)          -176.1124         estimate D2E/DX2                !
 ! D54   D(5,4,7,23)            63.8114         estimate D2E/DX2                !
 ! D55   D(10,4,7,12)           62.4685         estimate D2E/DX2                !
 ! D56   D(10,4,7,22)          -55.8939         estimate D2E/DX2                !
 ! D57   D(10,4,7,23)         -175.9701         estimate D2E/DX2                !
 ! D58   D(3,4,10,21)           44.0506         estimate D2E/DX2                !
 ! D59   D(5,4,10,21)          -70.6107         estimate D2E/DX2                !
 ! D60   D(7,4,10,21)          170.5753         estimate D2E/DX2                !
 ! D61   D(1,6,8,15)          -164.9401         estimate D2E/DX2                !
 ! D62   D(13,6,8,15)           75.2478         estimate D2E/DX2                !
 ! D63   D(14,6,8,15)          -45.4704         estimate D2E/DX2                !
 ! D64   D(4,7,12,24)           64.12           estimate D2E/DX2                !
 ! D65   D(4,7,12,27)          -62.1979         estimate D2E/DX2                !
 ! D66   D(22,7,12,24)        -176.0199         estimate D2E/DX2                !
 ! D67   D(22,7,12,27)          57.6622         estimate D2E/DX2                !
 ! D68   D(23,7,12,24)         -57.3241         estimate D2E/DX2                !
 ! D69   D(23,7,12,27)         176.358          estimate D2E/DX2                !
 ! D70   D(7,12,27,26)          31.4224         estimate D2E/DX2                !
 ! D71   D(24,12,27,26)        -93.3438         estimate D2E/DX2                !
 ! D72   D(25,26,27,12)         -3.986          estimate D2E/DX2                !
 ! D73   D(28,26,27,12)       -121.8714         estimate D2E/DX2                !
 ! D74   D(25,26,29,30)        -25.4571         estimate D2E/DX2                !
 ! D75   D(25,26,29,31)         99.7119         estimate D2E/DX2                !
 ! D76   D(27,26,29,30)         87.7281         estimate D2E/DX2                !
 ! D77   D(27,26,29,31)       -147.1029         estimate D2E/DX2                !
 ! D78   D(28,29,31,32)        -63.5234         estimate D2E/DX2                !
 ! D79   D(28,29,31,33)         56.4766         estimate D2E/DX2                !
 ! D80   D(28,29,31,37)        176.4766         estimate D2E/DX2                !
 ! D81   D(30,29,31,32)         68.4394         estimate D2E/DX2                !
 ! D82   D(30,29,31,33)       -171.5606         estimate D2E/DX2                !
 ! D83   D(30,29,31,37)        -51.5606         estimate D2E/DX2                !
 ! D84   D(29,31,33,34)         60.0939         estimate D2E/DX2                !
 ! D85   D(29,31,33,35)       -179.9061         estimate D2E/DX2                !
 ! D86   D(29,31,33,36)        -59.9061         estimate D2E/DX2                !
 ! D87   D(32,31,33,34)       -179.9061         estimate D2E/DX2                !
 ! D88   D(32,31,33,35)        -59.9061         estimate D2E/DX2                !
 ! D89   D(32,31,33,36)         60.0939         estimate D2E/DX2                !
 ! D90   D(37,31,33,34)        -59.9061         estimate D2E/DX2                !
 ! D91   D(37,31,33,35)         60.0939         estimate D2E/DX2                !
 ! D92   D(37,31,33,36)       -179.9061         estimate D2E/DX2                !
 ! D93   D(29,31,37,38)         63.2071         estimate D2E/DX2                !
 ! D94   D(29,31,37,39)       -176.7928         estimate D2E/DX2                !
 ! D95   D(29,31,37,40)        -56.7928         estimate D2E/DX2                !
 ! D96   D(32,31,37,38)        -56.7929         estimate D2E/DX2                !
 ! D97   D(32,31,37,39)         63.2072         estimate D2E/DX2                !
 ! D98   D(32,31,37,40)       -176.7928         estimate D2E/DX2                !
 ! D99   D(33,31,37,38)       -176.7929         estimate D2E/DX2                !
 ! D100  D(33,31,37,39)        -56.7928         estimate D2E/DX2                !
 ! D101  D(33,31,37,40)         63.2072         estimate D2E/DX2                !
 --------------------------------------------------------------------------------
 Trust Radius=3.00D-01 FncErr=1.00D-07 GrdErr=1.00D-06 EigMax=2.50D+02 EigMin=1.00D-04
 Number of steps in this run=    222 maximum allowed number of steps=    240.
 GradGradGradGradGradGradGradGradGradGradGradGradGradGradGradGradGradGrad

                          Input orientation:                          
 ---------------------------------------------------------------------
 Center     Atomic      Atomic             Coordinates (Angstroms)
 Number     Number       Type             X           Y           Z
 ---------------------------------------------------------------------
      1          6           0        1.862454    0.318650   -1.028568
      2          6           0        1.941648    1.229703    0.207451
      3          6           0        0.994993    0.558683    1.215113
      4          6           0       -0.070115   -0.018945    0.260430
      5          8           0        0.670163   -0.477452   -0.853779
      6          6           0        3.041995   -0.604723   -1.223111
      7          6           0       -0.861786   -1.186980    0.820288
      8          8           0        3.196155   -1.410402   -0.056679
      9          8           0        1.434594    2.504909   -0.179691
     10          8           0       -0.973711    1.000148   -0.127998
     11          8           0        1.640860   -0.429783    1.985469
     12          8           0       -1.731737   -1.766308   -0.155888
     13          1           0        2.864389   -1.238232   -2.096378
     14          1           0        3.934989    0.000907   -1.397315
     15          1           0        4.065532   -1.825094   -0.067278
     16          1           0        1.754427    0.936746   -1.923324
     17          1           0        2.956091    1.312612    0.602743
     18          1           0        1.474768    3.094026    0.584100
     19          1           0        0.553059    1.283034    1.899102
     20          1           0        2.230060   -0.940372    1.399677
     21          1           0       -0.468134    1.800415   -0.344716
     22          1           0       -1.492408   -0.838011    1.637881
     23          1           0       -0.172146   -1.945250    1.187162
     24          1           0       -1.199697   -2.143989   -0.869401
     25          1           0       -2.706227    0.734092   -0.781635
     26          8           0       -3.335652    0.011321   -0.990331
     27          1           0       -2.813459   -0.810547   -0.686039
     28          1           0       -4.220256    0.123927   -0.445770
     29          8           0       -5.478244    0.227141    0.258589
     30          1           0       -5.517010    0.698581    1.100463
     31          6           0       -6.504351    0.802144   -0.554661
     32          1           0       -6.238296    1.807416   -0.806736
     33          6           0       -6.662079   -0.025706   -1.843609
     34          1           0       -6.929734   -1.030570   -1.591600
     35          1           0       -7.428738    0.405491   -2.452873
     36          1           0       -5.737353   -0.027233   -2.381922
     37          6           0       -7.834583    0.802387    0.221279
     38          1           0       -7.741853    1.423048    1.087928
     39          1           0       -8.613783    1.180910   -0.406788
     40          1           0       -8.072365   -0.196629    0.521824
 ---------------------------------------------------------------------
                    Distance matrix (angstroms):
                    1          2          3          4          5
     1  C    0.000000
     2  C    1.537541   0.000000
     3  C    2.417480   1.536817   0.000000
     4  C    2.347405   2.368358   1.542572   0.000000
     5  O    1.444260   2.378500   2.336537   1.414108   0.000000
     6  C    1.510557   2.573400   3.389494   3.497036   2.403787
     7  C    3.620314   3.751689   2.578925   1.518055   2.377561
     8  O    2.390177   2.934912   3.215566   3.564440   2.808273
     9  O    2.383985   1.425880   2.434445   2.971144   3.151702
    10  O    3.052752   2.943559   2.423764   1.416302   2.326453
    11  O    3.113467   2.450656   1.409843   2.464139   3.000976
    12  O    4.245801   4.754141   3.836702   2.446954   2.813774
    13  H    2.137282   3.499969   4.205891   3.956326   2.633907
    14  H    2.128928   2.838771   3.972338   4.334671   3.344151
    15  H    3.220756   3.730703   4.093303   4.524726   3.736744
    16  H    1.092841   2.158953   3.251070   3.001846   2.078343
    17  H    2.201176   1.091890   2.188450   3.323875   3.248269
    18  H    3.233220   1.958454   2.656375   3.490274   3.933235
    19  H    3.349000   2.189225   1.089877   2.183745   3.269767
    20  H    2.759827   2.492751   1.951056   2.727218   2.779503
    21  H    2.845158   2.537252   2.472995   1.958237   2.596833
    22  H    4.438796   4.256091   2.883860   2.142699   3.318898
    23  H    3.764877   3.938056   2.762730   2.140069   2.651293
    24  H    3.932772   4.733863   4.057869   2.658625   2.504789
    25  H    4.594172   4.777726   4.209133   2.932925   3.587904
    26  O    5.207324   5.546984   4.890611   3.497006   4.037833
    27  H    4.822507   5.250903   4.471407   3.008051   3.503528
    28  H    6.113668   6.294323   5.490571   4.212220   4.944120
    29  O    7.453254   7.487492   6.551920   5.413725   6.287823
    30  H    7.689838   7.530680   6.514514   5.557802   6.594181
    31  C    8.394152   8.491085   7.709185   6.537427   7.293867
    32  H    8.239404   8.262797   7.613651   6.520805   7.276650
    33  C    8.570329   8.933477   8.266078   6.919611   7.412530
    34  H    8.912911   9.329890   8.555973   7.176892   7.655636
    35  H    9.400130   9.775520   9.188952   7.854393   8.302342
    36  H    7.727113   8.200720   7.655485   6.252974   6.602589
    37  C    9.789211   9.785575   8.888673   7.807886   8.667436
    38  H    9.896563   9.725370   8.780420   7.849819   8.839918
    39  H   10.530035  10.573400   9.764543   8.653271   9.441484
    40  H   10.068260  10.119966   9.125137   8.008489   8.854543
                    6          7          8          9         10
     6  C    0.000000
     7  C    4.444548   0.000000
     8  O    1.425990   4.157628   0.000000
     9  O    3.652708   4.461319   4.295101   0.000000
    10  O    4.461029   2.386483   4.817014   2.840231   0.000000
    11  O    3.505534   2.862557   2.747895   3.652791   3.653413
    12  O    5.027600   1.430159   4.941723   5.316908   2.868564
    13  H    1.093377   4.732224   2.073664   4.441746   4.859617
    14  H    1.092965   5.416446   2.082060   3.742273   5.167687
    15  H    1.967964   5.047121   0.963275   5.067879   5.777512
    16  H    2.127030   4.345364   3.327469   2.366788   3.266489
    17  H    2.649018   4.568530   2.811987   2.085360   4.009359
    18  H    4.404879   4.882856   4.864529   0.965427   3.299463
    19  H    4.416633   3.044108   4.250369   2.567384   2.553465
    20  H    2.766029   3.155316   1.809763   3.872613   4.045189
    21  H    4.344798   3.230592   4.880505   2.035662   0.971083
    22  H    5.366611   1.089918   5.018146   4.800627   2.601193
    23  H    4.235225   1.088657   3.630242   4.924816   3.323781
    24  H    4.526191   1.971065   4.530141   5.387712   3.238263
    25  H    5.918563   3.107835   6.321592   4.543625   1.870732
    26  O    6.411558   3.291547   6.749630   5.443378   2.701881
    27  H    5.883634   2.493943   6.072181   5.412448   2.640966
    28  H    7.339992   3.821086   7.583450   6.141433   3.377691
    29  O    8.688032   4.860754   8.833241   7.291615   4.586699
    30  H    8.964048   5.030402   9.039139   7.295643   4.716102
    31  C    9.672581   6.138863   9.962086   8.128152   5.550606
    32  H    9.597686   6.365569   9.996289   7.730001   5.369192
    33  C    9.741115   6.487550  10.114113   8.644579   6.029364
    34  H    9.987618   6.531590  10.248604   9.189945   6.460663
    35  H   10.590991   7.508289  11.042082   9.387948   6.886656
    36  H    8.874305   5.947295   9.334210   7.918232   5.369169
    37  C   11.061924   7.275733  11.253927   9.432762   6.872603
    38  H   11.213569   7.363369  11.356874   9.326546   6.889490
    39  H   11.819984   8.197931  12.095954  10.137772   7.647293
    40  H   11.257901   7.284389  11.348456   9.908214   7.228100
                   11         12         13         14         15
    11  O    0.000000
    12  O    4.212614   0.000000
    13  H    4.337290   5.016846   0.000000
    14  H    4.109957   6.064320   1.780545   0.000000
    15  H    3.469827   5.798244   2.429897   2.262812   0.000000
    16  H    4.142338   4.752228   2.447957   2.430500   4.051404
    17  H    2.584125   5.659594   3.714898   2.584385   3.394847
    18  H    3.795873   5.869591   5.280575   4.421095   5.597686
    19  H    2.030890   4.329176   5.259552   4.893635   5.085723
    20  H    0.975197   4.335642   3.565599   3.408218   2.510707
    21  H    3.853752   3.788649   4.838120   4.871723   5.811662
    22  H    3.178810   2.033868   5.752091   6.274778   5.896829
    23  H    2.494178   2.065945   4.527919   5.228346   4.421083
    24  H    4.376934   0.966856   4.340814   5.589658   5.335516
    25  H    5.282862   2.755574   6.053955   6.709871   7.274370
    26  O    5.815121   2.535508   6.420688   7.282030   7.681274
    27  H    5.207964   1.537746   5.865998   6.834173   6.980880
    28  H    6.369474   3.138431   7.400823   8.211492   8.520342
    29  O    7.354951   4.264029   8.791627   9.560447   9.767370
    30  H    7.300105   4.688538   9.177085   9.801323   9.977859
    31  C    8.620578   5.434502   9.711504  10.503898  10.902401
    32  H    8.653471   5.788280   9.684938  10.349299  10.950379
    33  C    9.152263   5.494212   9.606649  10.606495  11.021560
    34  H    9.306528   5.442587   9.809321  10.915306  11.128823
    35  H   10.131840   6.515265  10.429640  11.419815  11.949260
    36  H    8.583367   4.901487   8.691261   9.722369  10.231639
    37  C    9.716719   6.632132  11.135693  11.907352  12.190146
    38  H    9.605929   6.916688  11.389231  12.022793  12.300377
    39  H   10.652461   7.490768  11.851388  12.642991  13.035197
    40  H    9.825648   6.567096  11.293914  12.161359  12.260811
                   16         17         18         19         20
    16  H    0.000000
    17  H    2.822461   0.000000
    18  H    3.319524   2.316916   0.000000
    19  H    4.021709   2.730565   2.420428   0.000000
    20  H    3.846054   2.497631   4.184734   2.829362   0.000000
    21  H    2.859669   3.586216   2.512170   2.518975   4.223159
    22  H    5.135551   5.048350   5.037410   2.958210   3.731486
    23  H    4.657543   4.554237   5.335758   3.384464   2.612573
    24  H    4.396422   5.602310   6.058236   4.741440   4.284932
    25  H    4.608900   5.857733   4.991517   4.255659   5.650565
    26  O    5.256976   6.619462   5.926385   5.008807   6.131477
    27  H    5.044749   6.281439   5.936989   4.732809   5.459318
    28  H    6.208114   7.349307   6.505030   5.443022   6.793010
    29  O    7.587873   8.510858   7.527906   6.338991   7.879284
    30  H    7.878693   8.509888   7.408761   6.150215   7.924190
    31  C    8.372501   9.544639   8.379489   7.487272   9.118428
    32  H    8.117170   9.314946   7.942364   7.329327   9.172331
    33  C    8.471732  10.014236   9.046257   8.232794   9.509240
    34  H    8.910389  10.393998   9.611536   8.574961   9.636270
    35  H    9.213749  10.862980   9.783856   9.133392  10.485508
    36  H    7.567453   9.288670   8.399657   7.720962   8.866453
    37  C    9.826825  10.809463   9.594127   8.567301  10.282163
    38  H    9.974140  10.709510   9.380411   8.335657  10.252902
    39  H   10.481378  11.614580  10.316042   9.452965  11.196074
    40  H   10.189658  11.131540  10.098516   8.859133  10.366472
                   21         22         23         24         25
    21  H    0.000000
    22  H    3.455593   0.000000
    23  H    4.057618   1.781072   0.000000
    24  H    4.045838   2.842133   2.307555   0.000000
    25  H    2.517341   3.130323   4.180503   3.249721   0.000000
    26  O    3.440979   3.320604   4.310153   3.036822   0.980881
    27  H    3.526212   2.673300   3.431176   2.101408   1.551305
    28  H    4.110869   3.564840   4.830647   3.800879   1.666550
    29  O    5.285865   4.350159   5.808288   5.020018   3.003855
    30  H    5.365978   4.341354   5.963634   5.531705   3.382906
    31  C    6.121809   5.711123   7.118914   6.076028   3.805509
    32  H    5.788634   5.958011   7.406504   6.403515   3.691634
    33  C    6.629204   6.285389   7.415487   5.939177   4.165795
    34  H    7.163901   6.327017   7.363638   5.881718   4.648450
    35  H    7.405413   7.315776   8.451862   6.914346   5.020271
    36  H    5.937607   5.902181   6.883944   5.230555   3.511162
    37  C    7.455265   6.702302   8.197279   7.341146   5.225948
    38  H    7.423063   6.668613   8.285876   7.704200   5.415483
    39  H    8.169409   7.679238   9.141925   8.138651   5.936276
    40  H    7.909703   6.704684   8.118732   7.277450   5.600061
                   26         27         28         29         30
    26  O    0.000000
    27  H    1.020170   0.000000
    28  H    1.044869   1.705886   0.000000
    29  O    2.489393   3.011677   1.445444   0.000000
    30  H    3.098720   3.574667   2.098245   0.965666   0.000000
    31  C    3.294824   4.029977   2.385147   1.430000   1.930027
    32  H    3.418334   4.312517   2.652719   2.051796   2.321029
    33  C    3.434322   4.094853   2.817595   2.425826   3.240885
    34  H    3.790051   4.220447   3.160231   2.666807   3.497565
    35  H    4.364373   5.089327   3.795010   3.344886   4.045591
    36  H    2.776001   3.469691   2.464370   2.665360   3.564037
    37  C    4.725904   5.351305   3.737462   2.425826   2.480904
    38  H    5.072154   5.694293   4.054823   2.691082   2.339858
    39  H    5.437566   6.139026   4.519050   3.344250   3.477708
    40  H    4.976575   5.430646   3.984688   2.641654   2.768766
                   31         32         33         34         35
    31  C    0.000000
    32  H    1.070000   0.000000
    33  C    1.540000   2.148263   0.000000
    34  H    2.148263   3.024610   1.070000   0.000000
    35  H    2.148263   2.468261   1.070000   1.747303   0.000000
    36  H    2.148263   2.469431   1.070000   1.747303   1.747303
    37  C    1.540000   2.148263   2.514809   2.732217   2.733738
    38  H    2.148263   2.449118   3.443648   3.722855   3.697396
    39  H    2.148263   2.489058   2.707310   3.021662   2.488387
    40  H    2.148263   3.024083   2.759238   2.543152   3.102519
                   36         37         38         39         40
    36  H    0.000000
    37  C    3.444314   0.000000
    38  H    4.261595   1.070000   0.000000
    39  H    3.692507   1.070000   1.747303   0.000000
    40  H    3.729975   1.070000   1.747303   1.747303   0.000000
 Stoichiometry    C9H23O8(1+)
 Framework group  C1[X(C9H23O8)]
 Deg. of freedom   114
 Full point group                 C1      NOp   1
 Largest Abelian subgroup         C1      NOp   1
 Largest concise Abelian subgroup C1      NOp   1
                         Standard orientation:                         
 ---------------------------------------------------------------------
 Center     Atomic      Atomic             Coordinates (Angstroms)
 Number     Number       Type             X           Y           Z
 ---------------------------------------------------------------------
      1          6           0        2.999923    0.232450   -1.116000
      2          6           0        3.110220    1.297456   -0.012537
      3          6           0        2.257749    0.725721    1.131237
      4          6           0        1.165625   -0.010741    0.328479
      5          8           0        1.858618   -0.579970   -0.764883
      6          6           0        4.207511   -0.662030   -1.269022
      7          6           0        0.464127   -1.126657    1.081553
      8          8           0        4.468452   -1.304237   -0.022856
      9          8           0        2.522043    2.491647   -0.523507
     10          8           0        0.193912    0.914180   -0.125622
     11          8           0        2.993854   -0.129624    1.976336
     12          8           0       -0.434605   -1.860033    0.245015
     13          1           0        4.007806   -1.409101   -2.041988
     14          1           0        5.059296   -0.049838   -1.576034
     15          1           0        5.354033   -1.682948   -0.037723
     16          1           0        2.809953    0.725543   -2.072594
     17          1           0        4.141487    1.469699    0.302177
     18          1           0        2.580244    3.175322    0.155647
     19          1           0        1.824156    1.514505    1.745768
     20          1           0        3.570186   -0.688252    1.422454
     21          1           0        0.647779    1.698803   -0.474009
     22          1           0       -0.132130   -0.699932    1.887968
     23          1           0        1.209050   -1.804162    1.495376
     24          1           0        0.070907   -2.305615   -0.448328
     25          1           0       -1.560252    0.499448   -0.626168
     26          8           0       -2.166629   -0.267948   -0.700588
     27          1           0       -1.589443   -1.023000   -0.329779
     28          1           0       -3.021421   -0.120409   -0.118082
     29          8           0       -4.238544    0.023979    0.648126
     30          1           0       -4.248906    0.598051    1.424556
     31          6           0       -5.337078    0.449403   -0.162514
     32          1           0       -5.133715    1.423365   -0.556138
     33          6           0       -5.532723   -0.543004   -1.323742
     34          1           0       -5.737705   -1.516633   -0.930131
     35          1           0       -6.353668   -0.223791   -1.931239
     36          1           0       -4.642731   -0.578119   -1.916685
     37          6           0       -6.617161    0.498181    0.692243
     38          1           0       -6.501884    1.228390    1.465810
     39          1           0       -7.449277    0.762293    0.073593
     40          1           0       -6.789729   -0.462248    1.131214
 ---------------------------------------------------------------------
 Rotational constants (GHZ):           0.9697038           0.1496707           0.1462398
 Standard basis: 6-311++G(d,p) (5D, 7F)
 There are   552 symmetry adapted cartesian basis functions of A   symmetry.
 There are   535 symmetry adapted basis functions of A   symmetry.
   535 basis functions,   819 primitive gaussians,   552 cartesian basis functions
    70 alpha electrons       70 beta electrons
       nuclear repulsion energy      1428.6295361856 Hartrees.
 NAtoms=   40 NActive=   40 NUniq=   40 SFac= 1.00D+00 NAtFMM=   60 NAOKFM=F Big=F
 Integral buffers will be    131072 words long.
 Raffenetti 2 integral format.
 Two-electron integral symmetry is turned on.
 ------------------------------------------------------------------------------
 Polarizable Continuum Model (PCM)
 =================================
 Model                : PCM.
 Atomic radii         : SMD-Coulomb.
 Polarization charges : Total charges.
 Charge compensation  : None.
 Solution method      : On-the-fly selection.
 Cavity type          : VdW (van der Waals Surface) (Alpha=1.000).
 Cavity algorithm     : GePol (No added spheres)
                        Default sphere list used, NSphG=   40.
                        Lebedev-Laikov grids with approx.  5.0 points / Ang**2.
                        Smoothing algorithm: York/Karplus (Gamma=1.0000).
                        Polarization charges: spherical gaussians, with
                                              point-specific exponents (IZeta= 3).
                        Self-potential: point-specific (ISelfS= 7).
                        Self-field    : sphere-specific E.n sum rule (ISelfD= 2).
 1st derivatives      : Analytical E(r).r(x)/FMM algorithm (CHGder, D1EAlg=3).
                        Cavity 1st derivative terms included.
 Solvent              : 2-Propanol, Eps=  19.264000 Eps(inf)=   1.897782
 ------------------------------------------------------------------------------
 ------------------------------------------------------------------------------
 Atomic radii for non-electrostatic terms: SMD-CDS.
 ------------------------------------------------------------------------------
 Nuclear repulsion after PCM non-electrostatic terms =     1428.6298445317 Hartrees.
 One-electron integrals computed using PRISM.
 NBasis=   535 RedAO= T EigKep=  2.09D-06  NBF=   535
 NBsUse=   535 1.00D-06 EigRej= -1.00D+00 NBFU=   535
 ExpMin= 3.60D-02 ExpMax= 8.59D+03 ExpMxC= 1.30D+03 IAcc=3 IRadAn=         5 AccDes= 0.00D+00
 Harris functional with IExCor= 1009 and IRadAn=       5 diagonalized for initial guess.
 HarFok:  IExCor= 1009 AccDes= 0.00D+00 IRadAn=         5 IDoV= 1 UseB2=F ITyADJ=14
 ICtDFT=  3500011 ScaDFX=  1.000000  1.000000  1.000000  1.000000
 FoFCou: FMM=F IPFlag=           0 FMFlag=      100000 FMFlg1=           0
         NFxFlg=           0 DoJE=T BraDBF=F KetDBF=T FulRan=T
         wScrn=  0.000000 ICntrl=       500 IOpCl=  0 I1Cent=   200000004 NGrid=           0
         NMat0=    1 NMatS0=      1 NMatT0=    0 NMatD0=    1 NMtDS0=    0 NMtDT0=    0
 Petite list used in FoFCou.
 Requested convergence on RMS density matrix=1.00D-08 within 400 cycles.
 Requested convergence on MAX density matrix=1.00D-06.
 Requested convergence on             energy=1.00D-06.
 No special actions if energy rises.
 Inv3:  Mode=1 IEnd=    18795027.
 Iteration    1 A*A^-1 deviation from unit magnitude is 5.77D-15 for   2474.
 Iteration    1 A*A^-1 deviation from orthogonality  is 3.22D-15 for   2500    469.
 Iteration    1 A^-1*A deviation from unit magnitude is 5.77D-15 for   2474.
 Iteration    1 A^-1*A deviation from orthogonality  is 2.79D-15 for   2489   1957.
 Error on total polarization charges =  0.05359
 SCF Done:  E(RM062X) =  -958.389459450     A.U. after   13 cycles
            NFock= 13  Conv=0.27D-08     -V/T= 2.0034
 SMD-CDS (non-electrostatic) energy       (kcal/mol) =       0.19
 (included in total energy above)
 QCSCF skips out because SCF is already converged.

 **********************************************************************

            Population analysis using the SCF density.

 **********************************************************************

 Orbital symmetries:
       Occupied  (A) (A) (A) (A) (A) (A) (A) (A) (A) (A) (A) (A)
                 (A) (A) (A) (A) (A) (A) (A) (A) (A) (A) (A) (A)
                 (A) (A) (A) (A) (A) (A) (A) (A) (A) (A) (A) (A)
                 (A) (A) (A) (A) (A) (A) (A) (A) (A) (A) (A) (A)
                 (A) (A) (A) (A) (A) (A) (A) (A) (A) (A) (A) (A)
                 (A) (A) (A) (A) (A) (A) (A) (A) (A) (A)
       Virtual   (A) (A) (A) (A) (A) (A) (A) (A) (A) (A) (A) (A)
                 (A) (A) (A) (A) (A) (A) (A) (A) (A) (A) (A) (A)
                 (A) (A) (A) (A) (A) (A) (A) (A) (A) (A) (A) (A)
                 (A) (A) (A) (A) (A) (A) (A) (A) (A) (A) (A) (A)
                 (A) (A) (A) (A) (A) (A) (A) (A) (A) (A) (A) (A)
                 (A) (A) (A) (A) (A) (A) (A) (A) (A) (A) (A) (A)
                 (A) (A) (A) (A) (A) (A) (A) (A) (A) (A) (A) (A)
                 (A) (A) (A) (A) (A) (A) (A) (A) (A) (A) (A) (A)
                 (A) (A) (A) (A) (A) (A) (A) (A) (A) (A) (A) (A)
                 (A) (A) (A) (A) (A) (A) (A) (A) (A) (A) (A) (A)
                 (A) (A) (A) (A) (A) (A) (A) (A) (A) (A) (A) (A)
                 (A) (A) (A) (A) (A) (A) (A) (A) (A) (A) (A) (A)
                 (A) (A) (A) (A) (A) (A) (A) (A) (A) (A) (A) (A)
                 (A) (A) (A) (A) (A) (A) (A) (A) (A) (A) (A) (A)
                 (A) (A) (A) (A) (A) (A) (A) (A) (A) (A) (A) (A)
                 (A) (A) (A) (A) (A) (A) (A) (A) (A) (A) (A) (A)
                 (A) (A) (A) (A) (A) (A) (A) (A) (A) (A) (A) (A)
                 (A) (A) (A) (A) (A) (A) (A) (A) (A) (A) (A) (A)
                 (A) (A) (A) (A) (A) (A) (A) (A) (A) (A) (A) (A)
                 (A) (A) (A) (A) (A) (A) (A) (A) (A) (A) (A) (A)
                 (A) (A) (A) (A) (A) (A) (A) (A) (A) (A) (A) (A)
                 (A) (A) (A) (A) (A) (A) (A) (A) (A) (A) (A) (A)
                 (A) (A) (A) (A) (A) (A) (A) (A) (A) (A) (A) (A)
                 (A) (A) (A) (A) (A) (A) (A) (A) (A) (A) (A) (A)
                 (A) (A) (A) (A) (A) (A) (A) (A) (A) (A) (A) (A)
                 (A) (A) (A) (A) (A) (A) (A) (A) (A) (A) (A) (A)
                 (A) (A) (A) (A) (A) (A) (A) (A) (A) (A) (A) (A)
                 (A) (A) (A) (A) (A) (A) (A) (A) (A) (A) (A) (A)
                 (A) (A) (A) (A) (A) (A) (A) (A) (A) (A) (A) (A)
                 (A) (A) (A) (A) (A) (A) (A) (A) (A) (A) (A) (A)
                 (A) (A) (A) (A) (A) (A) (A) (A) (A) (A) (A) (A)
                 (A) (A) (A) (A) (A) (A) (A) (A) (A) (A) (A) (A)
                 (A) (A) (A) (A) (A) (A) (A) (A) (A) (A) (A) (A)
                 (A) (A) (A) (A) (A) (A) (A) (A) (A) (A) (A) (A)
                 (A) (A) (A) (A) (A) (A) (A) (A) (A) (A) (A) (A)
                 (A) (A) (A) (A) (A) (A) (A) (A) (A) (A) (A) (A)
                 (A) (A) (A) (A) (A) (A) (A) (A) (A) (A) (A) (A)
                 (A) (A) (A) (A) (A) (A) (A) (A) (A) (A) (A) (A)
                 (A) (A) (A) (A) (A) (A) (A) (A) (A)
 The electronic state is 1-A.
 Alpha  occ. eigenvalues --  -19.69982 -19.66720 -19.66639 -19.65120 -19.65086
 Alpha  occ. eigenvalues --  -19.64826 -19.64372 -19.63126 -10.66252 -10.60847
 Alpha  occ. eigenvalues --  -10.60565 -10.60561 -10.60362 -10.59878 -10.59420
 Alpha  occ. eigenvalues --  -10.52041 -10.51964  -1.23666  -1.22626  -1.18901
 Alpha  occ. eigenvalues --   -1.18140  -1.17012  -1.16822  -1.15470  -1.14647
 Alpha  occ. eigenvalues --   -0.89597  -0.88230  -0.87667  -0.82138  -0.79048
 Alpha  occ. eigenvalues --   -0.75624  -0.71333  -0.70006  -0.69278  -0.68491
 Alpha  occ. eigenvalues --   -0.66913  -0.65171  -0.63977  -0.62329  -0.61275
 Alpha  occ. eigenvalues --   -0.60628  -0.59260  -0.56853  -0.55387  -0.54262
 Alpha  occ. eigenvalues --   -0.54212  -0.53158  -0.52646  -0.51618  -0.50927
 Alpha  occ. eigenvalues --   -0.50614  -0.49261  -0.48832  -0.47453  -0.46557
 Alpha  occ. eigenvalues --   -0.46503  -0.45730  -0.45566  -0.44274  -0.43967
 Alpha  occ. eigenvalues --   -0.43244  -0.42663  -0.40536  -0.39715  -0.39500
 Alpha  occ. eigenvalues --   -0.38630  -0.37736  -0.37482  -0.36208  -0.33908
 Alpha virt. eigenvalues --   -0.01004   0.00037   0.00449   0.00721   0.01263
 Alpha virt. eigenvalues --    0.01658   0.01937   0.02694   0.02843   0.03286
 Alpha virt. eigenvalues --    0.03453   0.03731   0.04693   0.04867   0.05148
 Alpha virt. eigenvalues --    0.05432   0.05808   0.06536   0.07022   0.07524
 Alpha virt. eigenvalues --    0.07855   0.08303   0.09001   0.09126   0.09202
 Alpha virt. eigenvalues --    0.09690   0.10570   0.10712   0.10975   0.11367
 Alpha virt. eigenvalues --    0.11724   0.12033   0.12179   0.12495   0.12688
 Alpha virt. eigenvalues --    0.13121   0.13234   0.13555   0.14138   0.14425
 Alpha virt. eigenvalues --    0.14573   0.14852   0.15113   0.15383   0.15623
 Alpha virt. eigenvalues --    0.15737   0.16221   0.16442   0.16606   0.17196
 Alpha virt. eigenvalues --    0.17252   0.17892   0.18180   0.18409   0.18687
 Alpha virt. eigenvalues --    0.19162   0.19340   0.19935   0.20198   0.20850
 Alpha virt. eigenvalues --    0.21211   0.21786   0.22105   0.22588   0.23039
 Alpha virt. eigenvalues --    0.23316   0.23594   0.23723   0.24398   0.24806
 Alpha virt. eigenvalues --    0.25052   0.25391   0.25422   0.25717   0.26317
 Alpha virt. eigenvalues --    0.26675   0.27071   0.27263   0.27793   0.28094
 Alpha virt. eigenvalues --    0.28276   0.28672   0.28932   0.29162   0.29338
 Alpha virt. eigenvalues --    0.30031   0.30119   0.31085   0.31454   0.31519
 Alpha virt. eigenvalues --    0.31878   0.32518   0.32668   0.33012   0.33463
 Alpha virt. eigenvalues --    0.34019   0.34110   0.34450   0.34818   0.35036
 Alpha virt. eigenvalues --    0.35336   0.35387   0.35986   0.36359   0.36756
 Alpha virt. eigenvalues --    0.36763   0.37054   0.37453   0.38068   0.38360
 Alpha virt. eigenvalues --    0.38620   0.39202   0.39993   0.40366   0.40493
 Alpha virt. eigenvalues --    0.41063   0.41340   0.42270   0.42761   0.43139
 Alpha virt. eigenvalues --    0.44936   0.45095   0.46549   0.46849   0.47225
 Alpha virt. eigenvalues --    0.48628   0.49745   0.50373   0.50797   0.52338
 Alpha virt. eigenvalues --    0.52736   0.55141   0.55792   0.56048   0.56778
 Alpha virt. eigenvalues --    0.58166   0.58516   0.58654   0.60859   0.61012
 Alpha virt. eigenvalues --    0.62496   0.62611   0.63211   0.63593   0.63808
 Alpha virt. eigenvalues --    0.64038   0.64409   0.65940   0.66913   0.67229
 Alpha virt. eigenvalues --    0.68609   0.68800   0.69453   0.69975   0.71100
 Alpha virt. eigenvalues --    0.71440   0.71982   0.72466   0.73005   0.73486
 Alpha virt. eigenvalues --    0.74040   0.74547   0.74573   0.75723   0.75985
 Alpha virt. eigenvalues --    0.76712   0.77670   0.78531   0.79803   0.80964
 Alpha virt. eigenvalues --    0.81026   0.82023   0.82267   0.82725   0.83635
 Alpha virt. eigenvalues --    0.84797   0.85663   0.88467   0.89322   0.92358
 Alpha virt. eigenvalues --    0.96517   0.98399   0.99369   1.00408   1.02020
 Alpha virt. eigenvalues --    1.04490   1.05759   1.06398   1.07522   1.08340
 Alpha virt. eigenvalues --    1.09218   1.10636   1.11562   1.12837   1.13547
 Alpha virt. eigenvalues --    1.14601   1.17198   1.17567   1.18716   1.19903
 Alpha virt. eigenvalues --    1.20873   1.21479   1.22124   1.22596   1.23984
 Alpha virt. eigenvalues --    1.24912   1.25969   1.27416   1.27740   1.28523
 Alpha virt. eigenvalues --    1.29427   1.29621   1.30342   1.31034   1.31593
 Alpha virt. eigenvalues --    1.34400   1.35168   1.36800   1.37993   1.39365
 Alpha virt. eigenvalues --    1.40641   1.41419   1.41774   1.42886   1.44006
 Alpha virt. eigenvalues --    1.45803   1.47309   1.48301   1.50840   1.52128
 Alpha virt. eigenvalues --    1.52418   1.52638   1.53975   1.54401   1.54804
 Alpha virt. eigenvalues --    1.56200   1.56767   1.57792   1.58355   1.59459
 Alpha virt. eigenvalues --    1.59939   1.60302   1.61232   1.61589   1.62289
 Alpha virt. eigenvalues --    1.63068   1.63605   1.64087   1.64873   1.65490
 Alpha virt. eigenvalues --    1.65921   1.66887   1.67786   1.68884   1.69750
 Alpha virt. eigenvalues --    1.70279   1.71160   1.72152   1.72611   1.72944
 Alpha virt. eigenvalues --    1.73567   1.75271   1.76924   1.77590   1.78532
 Alpha virt. eigenvalues --    1.79078   1.80161   1.81791   1.82712   1.83009
 Alpha virt. eigenvalues --    1.83418   1.84656   1.85896   1.86357   1.87887
 Alpha virt. eigenvalues --    1.87964   1.89403   1.91858   1.92724   1.94376
 Alpha virt. eigenvalues --    1.94963   1.95820   1.96475   1.98542   1.99678
 Alpha virt. eigenvalues --    2.00285   2.01334   2.02052   2.03574   2.06128
 Alpha virt. eigenvalues --    2.07466   2.08235   2.09626   2.09705   2.10892
 Alpha virt. eigenvalues --    2.13038   2.13558   2.14645   2.15953   2.16355
 Alpha virt. eigenvalues --    2.18078   2.18555   2.20242   2.22975   2.23459
 Alpha virt. eigenvalues --    2.25134   2.26223   2.26320   2.28407   2.29453
 Alpha virt. eigenvalues --    2.31695   2.32912   2.34421   2.34696   2.36613
 Alpha virt. eigenvalues --    2.37707   2.42631   2.44883   2.47344   2.51805
 Alpha virt. eigenvalues --    2.54371   2.55746   2.55909   2.56376   2.57573
 Alpha virt. eigenvalues --    2.58177   2.58552   2.59857   2.60369   2.61366
 Alpha virt. eigenvalues --    2.61818   2.63795   2.64165   2.65944   2.66313
 Alpha virt. eigenvalues --    2.66662   2.68128   2.69361   2.70535   2.71652
 Alpha virt. eigenvalues --    2.72554   2.73438   2.75948   2.76396   2.78969
 Alpha virt. eigenvalues --    2.80150   2.81639   2.84166   2.84462   2.86937
 Alpha virt. eigenvalues --    2.88282   2.89591   2.92079   2.92838   2.94927
 Alpha virt. eigenvalues --    2.95910   2.96566   2.98436   2.98779   3.00859
 Alpha virt. eigenvalues --    3.02674   3.04994   3.05332   3.07580   3.09412
 Alpha virt. eigenvalues --    3.11714   3.14351   3.15261   3.15664   3.17329
 Alpha virt. eigenvalues --    3.18052   3.20478   3.20678   3.23147   3.23663
 Alpha virt. eigenvalues --    3.24586   3.25500   3.26312   3.27489   3.29478
 Alpha virt. eigenvalues --    3.30491   3.31890   3.32009   3.34250   3.35569
 Alpha virt. eigenvalues --    3.36307   3.37420   3.38708   3.41026   3.41695
 Alpha virt. eigenvalues --    3.42704   3.44544   3.49223   3.54562   3.60726
 Alpha virt. eigenvalues --    3.63954   3.84581   3.86566   3.86608   3.88164
 Alpha virt. eigenvalues --    3.88681   3.90156   3.91132   3.92449   3.93278
 Alpha virt. eigenvalues --    3.93324   3.94610   3.95524   3.97551   3.99474
 Alpha virt. eigenvalues --    3.99908   4.02836   4.04280   4.06626   4.07035
 Alpha virt. eigenvalues --    4.11365   4.17709   4.21765   4.23524   4.25315
 Alpha virt. eigenvalues --    4.28683   4.32411   4.34485   4.43285   5.18716
 Alpha virt. eigenvalues --    5.19175   5.20955   5.22900   5.24628   5.26958
 Alpha virt. eigenvalues --    5.30096   5.33036   5.47799   5.49156   5.53772
 Alpha virt. eigenvalues --    5.54570   5.56750   5.57948   5.62010   5.70370
 Alpha virt. eigenvalues --    5.71080   5.72160   5.75658   5.76294   5.80256
 Alpha virt. eigenvalues --    5.81247   5.92035   5.92587  23.79732  23.87692
 Alpha virt. eigenvalues --   23.88236  23.91688  23.94041  23.95494  23.99948
 Alpha virt. eigenvalues --   24.10330  24.11242  49.96475  50.01922  50.02256
 Alpha virt. eigenvalues --   50.03608  50.06277  50.08218  50.11500  50.13452
          Condensed to atoms (all electrons):
               1          2          3          4          5          6
     1  C   10.278382  -3.409446   2.121255  -2.787820   0.338083  -1.223085
     2  C   -3.409446  10.842806  -3.709799   2.656437  -0.208627   0.470506
     3  C    2.121255  -3.709799  12.358031  -5.252741   0.199045   0.013741
     4  C   -2.787820   2.656437  -5.252741  15.160551  -0.058004   0.250511
     5  O    0.338083  -0.208627   0.199045  -0.058004   8.145897  -0.116590
     6  C   -1.223085   0.470506   0.013741   0.250511  -0.116590   6.282901
     7  C    0.047156  -0.414488  -0.162968  -2.898882  -0.199294  -0.017032
     8  O   -0.007120  -0.085283   0.116418  -0.096813   0.012445   0.133177
     9  O   -0.216693   0.440900  -0.092479  -0.158281   0.008220   0.012301
    10  O    0.016029   0.031471  -0.004727  -0.050789  -0.028999   0.003187
    11  O    0.005933  -0.148021   0.477623  -0.237413   0.002728  -0.003361
    12  O   -0.002487  -0.028984   0.048288  -0.137387  -0.014571  -0.005593
    13  H   -0.086194   0.001582   0.022800  -0.028276  -0.021523   0.450699
    14  H   -0.016829  -0.017562   0.011415  -0.019380   0.021427   0.431828
    15  H   -0.075614   0.025995  -0.005360   0.006178   0.002452   0.072326
    16  H    0.487786  -0.150537   0.036657  -0.011525  -0.034367  -0.075732
    17  H    0.055712   0.287610   0.082528  -0.150183  -0.003094  -0.052323
    18  H   -0.061467   0.101253  -0.096668   0.088067  -0.001021   0.000412
    19  H    0.036758  -0.070529   0.423212  -0.058790   0.022122   0.009323
    20  H    0.110413  -0.025954  -0.024514   0.049913   0.004566  -0.041357
    21  H    0.010442  -0.027195   0.004924   0.043812  -0.009664  -0.009300
    22  H   -0.006837  -0.015496  -0.015119  -0.054588   0.015031   0.004411
    23  H    0.023683  -0.020709  -0.019609  -0.069936  -0.022710  -0.018291
    24  H    0.006369  -0.001409  -0.014313   0.025733   0.012902  -0.000485
    25  H   -0.022147   0.018907  -0.057517  -0.031062  -0.007942   0.001501
    26  O    0.013785  -0.004813  -0.018633   0.228075   0.000211  -0.000664
    27  H   -0.001775  -0.004598  -0.015662  -0.227874  -0.003296   0.001752
    28  H   -0.009282   0.007271   0.041352   0.015200  -0.001169  -0.000292
    29  O    0.000206  -0.000350   0.001900   0.009053   0.000013  -0.000006
    30  H    0.000269   0.000091  -0.002263  -0.000245   0.000039  -0.000032
    31  C    0.000510  -0.000677  -0.005710  -0.012857   0.000312   0.000061
    32  H   -0.000050  -0.000062  -0.000398  -0.001308   0.000009  -0.000006
    33  C    0.000016  -0.000066   0.000937  -0.002357  -0.000023  -0.000010
    34  H    0.000014   0.000038  -0.000123   0.000674   0.000015   0.000003
    35  H   -0.000010  -0.000007  -0.000010  -0.000331  -0.000005  -0.000000
    36  H    0.000414  -0.000247   0.000772   0.004190   0.000047  -0.000049
    37  C    0.000091  -0.000046   0.000527   0.002606   0.000000  -0.000000
    38  H   -0.000016   0.000013   0.000023   0.000009  -0.000003   0.000001
    39  H    0.000005  -0.000004   0.000007   0.000021   0.000001   0.000000
    40  H   -0.000000   0.000002  -0.000007   0.000048   0.000000  -0.000000
               7          8          9         10         11         12
     1  C    0.047156  -0.007120  -0.216693   0.016029   0.005933  -0.002487
     2  C   -0.414488  -0.085283   0.440900   0.031471  -0.148021  -0.028984
     3  C   -0.162968   0.116418  -0.092479  -0.004727   0.477623   0.048288
     4  C   -2.898882  -0.096813  -0.158281  -0.050789  -0.237413  -0.137387
     5  O   -0.199294   0.012445   0.008220  -0.028999   0.002728  -0.014571
     6  C   -0.017032   0.133177   0.012301   0.003187  -0.003361  -0.005593
     7  C    9.501870  -0.003247   0.036405  -0.183072  -0.028524   0.076253
     8  O   -0.003247   8.265543   0.004302   0.003435  -0.013359  -0.001217
     9  O    0.036405   0.004302   8.002396   0.019380   0.022015  -0.000040
    10  O   -0.183072   0.003435   0.019380   8.196358   0.025997   0.032510
    11  O   -0.028524  -0.013359   0.022015   0.025997   7.901851   0.000607
    12  O    0.076253  -0.001217  -0.000040   0.032510   0.000607   8.168262
    13  H   -0.003917  -0.045146  -0.001947   0.001873   0.001950   0.001098
    14  H    0.005293  -0.069631  -0.001746  -0.001344  -0.001105  -0.000562
    15  H    0.000300   0.210016  -0.000004  -0.000043   0.002185  -0.000018
    16  H    0.003341   0.009416  -0.006024   0.000640  -0.001990  -0.001156
    17  H    0.001926   0.004409  -0.001290   0.003752  -0.006345   0.000481
    18  H    0.016860   0.000309   0.280748  -0.008293   0.003439  -0.000154
    19  H   -0.103552  -0.000993  -0.028333   0.013367  -0.061362  -0.004213
    20  H   -0.047644  -0.037163  -0.001740  -0.002243   0.284633  -0.000743
    21  H   -0.004927   0.000540  -0.007132   0.239690  -0.000540   0.006744
    22  H    0.449215   0.001574  -0.000301  -0.006438  -0.012024  -0.063816
    23  H    0.416272  -0.002271   0.000372   0.013117   0.030515   0.001593
    24  H   -0.010298  -0.000186  -0.000267  -0.006710  -0.000099   0.266672
    25  H    0.072312  -0.000233  -0.001432   0.008241  -0.001247  -0.002925
    26  O   -0.207284  -0.000052   0.001412  -0.005243  -0.000142  -0.029539
    27  H    0.241478  -0.000035  -0.000543   0.002408  -0.000642   0.014833
    28  H   -0.021169   0.000045  -0.000065   0.011989   0.000712   0.032748
    29  O    0.000503  -0.000000   0.000015  -0.003237   0.000000  -0.003185
    30  H    0.002815  -0.000002   0.000024  -0.001080   0.000002  -0.001143
    31  C    0.007789   0.000001  -0.000024  -0.001857   0.000008  -0.000194
    32  H    0.001205   0.000000   0.000003   0.000251  -0.000004  -0.000478
    33  C    0.001333  -0.000001  -0.000001   0.000922  -0.000007  -0.003430
    34  H   -0.001011  -0.000000   0.000001  -0.000003   0.000000   0.000550
    35  H    0.000465  -0.000000  -0.000001  -0.000017  -0.000000  -0.000229
    36  H   -0.001903   0.000000   0.000021  -0.000641   0.000002  -0.000974
    37  C   -0.001269  -0.000000   0.000001  -0.000613   0.000003   0.000624
    38  H   -0.000091   0.000000  -0.000001   0.000007   0.000000   0.000095
    39  H   -0.000037  -0.000000   0.000000   0.000008  -0.000000   0.000001
    40  H    0.000018   0.000000  -0.000000  -0.000038  -0.000000  -0.000077
              13         14         15         16         17         18
     1  C   -0.086194  -0.016829  -0.075614   0.487786   0.055712  -0.061467
     2  C    0.001582  -0.017562   0.025995  -0.150537   0.287610   0.101253
     3  C    0.022800   0.011415  -0.005360   0.036657   0.082528  -0.096668
     4  C   -0.028276  -0.019380   0.006178  -0.011525  -0.150183   0.088067
     5  O   -0.021523   0.021427   0.002452  -0.034367  -0.003094  -0.001021
     6  C    0.450699   0.431828   0.072326  -0.075732  -0.052323   0.000412
     7  C   -0.003917   0.005293   0.000300   0.003341   0.001926   0.016860
     8  O   -0.045146  -0.069631   0.210016   0.009416   0.004409   0.000309
     9  O   -0.001947  -0.001746  -0.000004  -0.006024  -0.001290   0.280748
    10  O    0.001873  -0.001344  -0.000043   0.000640   0.003752  -0.008293
    11  O    0.001950  -0.001105   0.002185  -0.001990  -0.006345   0.003439
    12  O    0.001098  -0.000562  -0.000018  -0.001156   0.000481  -0.000154
    13  H    0.535825  -0.047476   0.003917  -0.006717   0.003173  -0.000612
    14  H   -0.047476   0.516254  -0.010627  -0.003864  -0.011172   0.000729
    15  H    0.003917  -0.010627   0.406605  -0.001642  -0.002939  -0.000092
    16  H   -0.006717  -0.003864  -0.001642   0.426976   0.006079   0.000417
    17  H    0.003173  -0.011172  -0.002939   0.006079   0.482225  -0.021830
    18  H   -0.000612   0.000729  -0.000092   0.000417  -0.021830   0.387544
    19  H    0.001025  -0.000643   0.000254   0.004496  -0.005853  -0.008554
    20  H   -0.005518   0.003379  -0.001925   0.002176  -0.011006   0.001352
    21  H   -0.000509   0.000269  -0.000088   0.007238   0.004347  -0.008775
    22  H   -0.000027   0.000343   0.000114  -0.000801  -0.002500   0.001099
    23  H    0.001193  -0.001269  -0.001532   0.001432   0.005267  -0.000899
    24  H   -0.000777   0.000026   0.000089   0.000245  -0.000290  -0.000009
    25  H   -0.000225   0.000192   0.000030   0.001230   0.000076   0.000034
    26  O    0.000058  -0.000034   0.000006  -0.000737  -0.000351   0.000212
    27  H    0.000146   0.000285   0.000006   0.001311  -0.000297   0.000168
    28  H    0.000131  -0.000164  -0.000007  -0.000755   0.000408  -0.000345
    29  O    0.000000   0.000000   0.000000   0.000028  -0.000004  -0.000007
    30  H   -0.000004   0.000001   0.000000   0.000031   0.000004   0.000012
    31  C   -0.000008   0.000007  -0.000000   0.000073  -0.000026   0.000025
    32  H   -0.000001   0.000000   0.000000  -0.000001  -0.000010   0.000018
    33  C    0.000001  -0.000000   0.000001   0.000019   0.000002  -0.000007
    34  H   -0.000001  -0.000000  -0.000000  -0.000006   0.000000  -0.000001
    35  H   -0.000000   0.000000   0.000000   0.000008  -0.000000   0.000000
    36  H   -0.000002   0.000000  -0.000000  -0.000019  -0.000001   0.000012
    37  C   -0.000000  -0.000000  -0.000000   0.000004   0.000002   0.000000
    38  H    0.000000  -0.000000  -0.000000  -0.000001   0.000000  -0.000001
    39  H    0.000000   0.000000   0.000000  -0.000000  -0.000000  -0.000000
    40  H   -0.000000   0.000000  -0.000000  -0.000000   0.000000   0.000000
              19         20         21         22         23         24
     1  C    0.036758   0.110413   0.010442  -0.006837   0.023683   0.006369
     2  C   -0.070529  -0.025954  -0.027195  -0.015496  -0.020709  -0.001409
     3  C    0.423212  -0.024514   0.004924  -0.015119  -0.019609  -0.014313
     4  C   -0.058790   0.049913   0.043812  -0.054588  -0.069936   0.025733
     5  O    0.022122   0.004566  -0.009664   0.015031  -0.022710   0.012902
     6  C    0.009323  -0.041357  -0.009300   0.004411  -0.018291  -0.000485
     7  C   -0.103552  -0.047644  -0.004927   0.449215   0.416272  -0.010298
     8  O   -0.000993  -0.037163   0.000540   0.001574  -0.002271  -0.000186
     9  O   -0.028333  -0.001740  -0.007132  -0.000301   0.000372  -0.000267
    10  O    0.013367  -0.002243   0.239690  -0.006438   0.013117  -0.006710
    11  O   -0.061362   0.284633  -0.000540  -0.012024   0.030515  -0.000099
    12  O   -0.004213  -0.000743   0.006744  -0.063816   0.001593   0.266672
    13  H    0.001025  -0.005518  -0.000509  -0.000027   0.001193  -0.000777
    14  H   -0.000643   0.003379   0.000269   0.000343  -0.001269   0.000026
    15  H    0.000254  -0.001925  -0.000088   0.000114  -0.001532   0.000089
    16  H    0.004496   0.002176   0.007238  -0.000801   0.001432   0.000245
    17  H   -0.005853  -0.011006   0.004347  -0.002500   0.005267  -0.000290
    18  H   -0.008554   0.001352  -0.008775   0.001099  -0.000899  -0.000009
    19  H    0.478124   0.013038   0.005087   0.001028   0.003993  -0.000112
    20  H    0.013038   0.391080  -0.000548   0.000553  -0.003643   0.000811
    21  H    0.005087  -0.000548   0.369120  -0.000558   0.001588   0.000313
    22  H    0.001028   0.000553  -0.000558   0.431423  -0.032083   0.012642
    23  H    0.003993  -0.003643   0.001588  -0.032083   0.485390  -0.022291
    24  H   -0.000112   0.000811   0.000313   0.012642  -0.022291   0.376240
    25  H    0.005622  -0.000217   0.003042   0.002693   0.001644   0.002004
    26  O   -0.003173   0.000614  -0.012947   0.004583  -0.006514   0.003158
    27  H    0.003503  -0.000793   0.000764   0.001414   0.006666  -0.012479
    28  H   -0.002189  -0.000115   0.000501  -0.013458   0.003086  -0.004682
    29  O    0.000119  -0.000002   0.001054  -0.003293   0.000038  -0.000188
    30  H   -0.000021   0.000004   0.000043  -0.001490   0.000209  -0.000004
    31  C    0.000287   0.000006  -0.000650   0.004351  -0.000258   0.000215
    32  H   -0.000061   0.000001  -0.000275   0.000098  -0.000038   0.000146
    33  C    0.000050  -0.000007   0.000141   0.001027  -0.000242   0.000094
    34  H   -0.000007  -0.000000   0.000013  -0.000270   0.000074  -0.000122
    35  H    0.000014  -0.000000  -0.000030   0.000055   0.000001  -0.000018
    36  H   -0.000069   0.000013   0.000290   0.000103  -0.000331   0.000221
    37  C   -0.000024  -0.000001   0.000236  -0.000446   0.000100  -0.000256
    38  H    0.000003  -0.000000  -0.000029   0.000013   0.000012   0.000005
    39  H   -0.000001  -0.000000   0.000011   0.000023  -0.000002  -0.000003
    40  H   -0.000002   0.000000  -0.000012  -0.000033  -0.000015   0.000005
              25         26         27         28         29         30
     1  C   -0.022147   0.013785  -0.001775  -0.009282   0.000206   0.000269
     2  C    0.018907  -0.004813  -0.004598   0.007271  -0.000350   0.000091
     3  C   -0.057517  -0.018633  -0.015662   0.041352   0.001900  -0.002263
     4  C   -0.031062   0.228075  -0.227874   0.015200   0.009053  -0.000245
     5  O   -0.007942   0.000211  -0.003296  -0.001169   0.000013   0.000039
     6  C    0.001501  -0.000664   0.001752  -0.000292  -0.000006  -0.000032
     7  C    0.072312  -0.207284   0.241478  -0.021169   0.000503   0.002815
     8  O   -0.000233  -0.000052  -0.000035   0.000045  -0.000000  -0.000002
     9  O   -0.001432   0.001412  -0.000543  -0.000065   0.000015   0.000024
    10  O    0.008241  -0.005243   0.002408   0.011989  -0.003237  -0.001080
    11  O   -0.001247  -0.000142  -0.000642   0.000712   0.000000   0.000002
    12  O   -0.002925  -0.029539   0.014833   0.032748  -0.003185  -0.001143
    13  H   -0.000225   0.000058   0.000146   0.000131   0.000000  -0.000004
    14  H    0.000192  -0.000034   0.000285  -0.000164   0.000000   0.000001
    15  H    0.000030   0.000006   0.000006  -0.000007   0.000000   0.000000
    16  H    0.001230  -0.000737   0.001311  -0.000755   0.000028   0.000031
    17  H    0.000076  -0.000351  -0.000297   0.000408  -0.000004   0.000004
    18  H    0.000034   0.000212   0.000168  -0.000345  -0.000007   0.000012
    19  H    0.005622  -0.003173   0.003503  -0.002189   0.000119  -0.000021
    20  H   -0.000217   0.000614  -0.000793  -0.000115  -0.000002   0.000004
    21  H    0.003042  -0.012947   0.000764   0.000501   0.001054   0.000043
    22  H    0.002693   0.004583   0.001414  -0.013458  -0.003293  -0.001490
    23  H    0.001644  -0.006514   0.006666   0.003086   0.000038   0.000209
    24  H    0.002004   0.003158  -0.012479  -0.004682  -0.000188  -0.000004
    25  H    0.349318   0.168459   0.038673   0.028990  -0.027032  -0.001578
    26  O    0.168459   8.548573   0.064525  -0.205307   0.086498   0.019184
    27  H    0.038673   0.064525   0.420439  -0.017048  -0.014625   0.000370
    28  H    0.028990  -0.205307  -0.017048   0.668742  -0.016990  -0.028352
    29  O   -0.027032   0.086498  -0.014625  -0.016990   8.258968   0.300000
    30  H   -0.001578   0.019184   0.000370  -0.028352   0.300000   0.373940
    31  C    0.026369  -0.018713   0.034877  -0.085326   0.035771  -0.013657
    32  H    0.000398   0.005263  -0.000588  -0.011305  -0.053903  -0.004028
    33  C   -0.004327  -0.008534  -0.002466   0.025924  -0.100565  -0.000680
    34  H    0.001281   0.007781   0.001848  -0.026506   0.003944   0.003808
    35  H    0.001110  -0.003246   0.000868   0.000922   0.011845  -0.001390
    36  H   -0.010341  -0.001362  -0.010077   0.031834  -0.000976  -0.000176
    37  C   -0.004760  -0.000756   0.003363   0.009478  -0.126328   0.008000
    38  H    0.000530  -0.001344  -0.000103   0.004005  -0.011319  -0.001749
    39  H   -0.000327   0.000889  -0.000165   0.000485   0.013917   0.001027
    40  H    0.000487   0.000534  -0.000200  -0.001554   0.005324  -0.000907
              31         32         33         34         35         36
     1  C    0.000510  -0.000050   0.000016   0.000014  -0.000010   0.000414
     2  C   -0.000677  -0.000062  -0.000066   0.000038  -0.000007  -0.000247
     3  C   -0.005710  -0.000398   0.000937  -0.000123  -0.000010   0.000772
     4  C   -0.012857  -0.001308  -0.002357   0.000674  -0.000331   0.004190
     5  O    0.000312   0.000009  -0.000023   0.000015  -0.000005   0.000047
     6  C    0.000061  -0.000006  -0.000010   0.000003  -0.000000  -0.000049
     7  C    0.007789   0.001205   0.001333  -0.001011   0.000465  -0.001903
     8  O    0.000001   0.000000  -0.000001  -0.000000  -0.000000   0.000000
     9  O   -0.000024   0.000003  -0.000001   0.000001  -0.000001   0.000021
    10  O   -0.001857   0.000251   0.000922  -0.000003  -0.000017  -0.000641
    11  O    0.000008  -0.000004  -0.000007   0.000000  -0.000000   0.000002
    12  O   -0.000194  -0.000478  -0.003430   0.000550  -0.000229  -0.000974
    13  H   -0.000008  -0.000001   0.000001  -0.000001  -0.000000  -0.000002
    14  H    0.000007   0.000000  -0.000000  -0.000000   0.000000   0.000000
    15  H   -0.000000   0.000000   0.000001  -0.000000   0.000000  -0.000000
    16  H    0.000073  -0.000001   0.000019  -0.000006   0.000008  -0.000019
    17  H   -0.000026  -0.000010   0.000002   0.000000  -0.000000  -0.000001
    18  H    0.000025   0.000018  -0.000007  -0.000001   0.000000   0.000012
    19  H    0.000287  -0.000061   0.000050  -0.000007   0.000014  -0.000069
    20  H    0.000006   0.000001  -0.000007  -0.000000  -0.000000   0.000013
    21  H   -0.000650  -0.000275   0.000141   0.000013  -0.000030   0.000290
    22  H    0.004351   0.000098   0.001027  -0.000270   0.000055   0.000103
    23  H   -0.000258  -0.000038  -0.000242   0.000074   0.000001  -0.000331
    24  H    0.000215   0.000146   0.000094  -0.000122  -0.000018   0.000221
    25  H    0.026369   0.000398  -0.004327   0.001281   0.001110  -0.010341
    26  O   -0.018713   0.005263  -0.008534   0.007781  -0.003246  -0.001362
    27  H    0.034877  -0.000588  -0.002466   0.001848   0.000868  -0.010077
    28  H   -0.085326  -0.011305   0.025924  -0.026506   0.000922   0.031834
    29  O    0.035771  -0.053903  -0.100565   0.003944   0.011845  -0.000976
    30  H   -0.013657  -0.004028  -0.000680   0.003808  -0.001390  -0.000176
    31  C    5.605622   0.469334   0.107849  -0.016004  -0.049122  -0.046435
    32  H    0.469334   0.517553  -0.072221   0.006476  -0.006878  -0.005966
    33  C    0.107849  -0.072221   5.487694   0.390504   0.404688   0.379455
    34  H   -0.016004   0.006476   0.390504   0.515793  -0.040211  -0.034231
    35  H   -0.049122  -0.006878   0.404688  -0.040211   0.518523  -0.029092
    36  H   -0.046435  -0.005966   0.379455  -0.034231  -0.029092   0.557362
    37  C    0.249452  -0.057758  -0.145534  -0.009962   0.012410   0.006251
    38  H   -0.015840  -0.008000   0.011793  -0.001930  -0.000056  -0.002757
    39  H   -0.071611  -0.009353   0.011046   0.002533  -0.002915   0.000456
    40  H   -0.026738   0.006848  -0.013664   0.004064   0.002737  -0.001564
              37         38         39         40
     1  C    0.000091  -0.000016   0.000005  -0.000000
     2  C   -0.000046   0.000013  -0.000004   0.000002
     3  C    0.000527   0.000023   0.000007  -0.000007
     4  C    0.002606   0.000009   0.000021   0.000048
     5  O    0.000000  -0.000003   0.000001   0.000000
     6  C   -0.000000   0.000001   0.000000  -0.000000
     7  C   -0.001269  -0.000091  -0.000037   0.000018
     8  O   -0.000000   0.000000  -0.000000   0.000000
     9  O    0.000001  -0.000001   0.000000  -0.000000
    10  O   -0.000613   0.000007   0.000008  -0.000038
    11  O    0.000003   0.000000  -0.000000  -0.000000
    12  O    0.000624   0.000095   0.000001  -0.000077
    13  H   -0.000000   0.000000   0.000000  -0.000000
    14  H   -0.000000  -0.000000   0.000000   0.000000
    15  H   -0.000000  -0.000000   0.000000  -0.000000
    16  H    0.000004  -0.000001  -0.000000  -0.000000
    17  H    0.000002   0.000000  -0.000000   0.000000
    18  H    0.000000  -0.000001  -0.000000   0.000000
    19  H   -0.000024   0.000003  -0.000001  -0.000002
    20  H   -0.000001  -0.000000  -0.000000   0.000000
    21  H    0.000236  -0.000029   0.000011  -0.000012
[...]
 13,0.00000102,0.00000093,0.00000046,-0.00000161,-0.00000020,0.00000096
 ,-0.00000016,-0.00000061,0.00000072,-0.00000059,0.00000060,-0.00000032
 ,-0.00000012,-0.00000015,-0.00000039,0.00000139,0.00000199,0.00000087,
 -0.00000142,-0.00000118,-0.00000377,0.00000004,-0.00000002,-0.00000087
 ,-0.00000079,-0.00000034,-0.00000019,0.00001424,0.00000385,0.00000709,
 -0.00006434,-0.00006918,0.00002982,-0.00056454,-0.00039574,-0.00007633
 ,-0.00003684,0.00019448,0.00001308,-0.00013411,-0.00008721,-0.00049059
 ,-0.00009113,0.00138887,0.00176920,0.00015136,0.00000882,0.00024257,0.
 02697845,0.00022435,-0.01377016,-0.00003288,0.00127953,0.00092416,-0.0
 0015202,-0.04834750,-0.00026110,-0.02301453,0.00148082,0.01117606,-0.0
 0058262,-0.00118538,0.00057872,-0.00257051,0.04989344,-0.00001007,-0.0
 0000462,0.00000226,0.00000117,-0.00000209,0.00000366,-0.00000365,-0.00
 000065,-0.00000906,-0.00001574,0.00001940,0.00001818,0.00001545,-0.000
 00140,-0.00001089,0.00000016,0.00000055,0.00000024,-0.00002202,-0.0000
 1862,-0.00004136,0.00000209,0.00000094,-0.00000054,0.00000512,0.000005
 10,-0.00000012,0.00005616,0.00000904,0.00000843,0.00000866,-0.00000074
 ,0.00000252,0.00008204,-0.00004966,0.00003724,-0.00000014,-0.00000019,
 0.00000042,0.00000094,-0.00000026,-0.00000013,-0.00000114,-0.00000034,
 -0.00000015,0.00000082,0.00000105,-0.00000059,0.00000151,0.00000090,-0
 .00000088,-0.00000048,-0.00000143,-0.00000031,0.00000036,-0.00000017,0
 .00000015,-0.00000294,0.00000022,0.00000093,0.00000163,-0.00001205,0.0
 0000727,-0.00000125,0.00000169,0.00000065,0.00000613,0.00000196,0.0000
 0612,-0.00000572,0.00000328,0.00001121,-0.00004601,-0.00016238,0.00005
 888,-0.00038507,0.00008195,0.00002171,-0.00021429,0.00012274,-0.000075
 19,-0.00043662,-0.00049794,-0.00072361,0.00043878,0.00106866,0.0012289
 8,0.00003969,0.00006802,0.00019117,0.01593079,0.00103871,-0.01069662,-
 0.00069880,0.00021607,0.00062969,0.11711847,-0.00100803,-0.11456407,0.
 01515749,-0.00158367,-0.00860876,-0.01851335,0.00041100,0.01247303,-0.
 12870050,0.00428706,0.12131443,0.00001450,0.00000453,-0.00000228,0.000
 00123,0.00000206,-0.00000411,0.00000702,0.00000069,0.00001136,0.000037
 82,-0.00004597,-0.00002156,-0.00002912,0.00000642,0.00002106,0.0000000
 9,-0.00000318,-0.00000007,0.00003229,0.00001947,0.00003757,-0.00000362
 ,0.00000229,0.00000157,-0.00001228,-0.00000716,0.00000026,-0.00010029,
 -0.00000396,-0.00002523,-0.00001688,0.00000651,-0.00000573,-0.00015520
 ,0.00019246,-0.00005942,-0.00000035,0.00000070,0.00000012,-0.00000146,
 0.00000100,-0.00000005,0.00000082,-0.00000061,0.,-0.00000156,-0.000001
 55,0.00000067,-0.00000227,-0.00000087,0.00000077,0.00000294,0.00000191
 ,0.00000066,0.00000038,0.00000156,0.00000071,0.00000543,-0.00000253,-0
 .00000256,-0.00000285,0.00001960,-0.00000931,0.00000350,-0.00000522,0.
 00000374,-0.00000970,-0.00000188,-0.00000900,-0.00000939,-0.00000657,-
 0.00002779,0.00013811,0.00021266,0.00011301,-0.00293250,0.00043300,0.0
 0151752,0.00020195,-0.00051652,0.00014518,0.00401689,-0.00043198,-0.00
 329397,-0.04601645,0.00175232,0.00554908,0.00092493,0.00086499,0.00206
 605,-0.16306460,0.00015601,0.06275370,-0.00280830,0.00035418,0.0041606
 1,-0.00198616,0.00459498,0.00631556,0.00009462,-0.00086170,-0.00072384
 ,-0.00035634,-0.00026455,-0.00035663,0.00100721,-0.00108072,-0.0008137
 2,0.52134129,-0.00000181,-0.00000082,0.00000066,0.00000017,-0.00000060
 ,0.00000027,-0.00000114,0.00000183,-0.00000077,0.00000186,-0.00000038,
 0.00000016,0.00000171,0.00000039,0.00000056,-0.00000014,-0.00000004,-0
 .00000064,-0.00000550,-0.00000393,-0.00001056,0.00000056,0.00000010,0.
 00000069,0.00000076,0.00000117,-0.00000032,0.00000970,0.00000245,0.000
 00269,0.00000084,-0.00000052,0.00000087,0.00001172,-0.00000705,0.00001
 694,-0.00000015,0.00000010,0.00000029,0.00000021,-0.00000008,0.0000000
 7,-0.00000016,0.,-0.00000026,0.00000022,0.00000002,-0.00000022,0.00000
 010,0.00000019,-0.00000006,-0.00000074,-0.00000011,0.00000015,0.000000
 13,-0.00000005,0.,-0.00000018,-0.00000019,-0.00000037,0.00000057,-0.00
 000167,0.00000184,0.00000055,0.00000217,0.00000127,0.00000209,0.000000
 20,0.00000085,-0.00000670,-0.00000032,-0.00000365,0.00000146,-0.000019
 99,0.00001504,0.00011595,-0.00002837,-0.00001533,-0.00000868,0.0000139
 2,-0.00003088,-0.00011557,-0.00008161,0.00007611,0.00125182,0.00177602
 ,-0.00253743,-0.00191948,0.00093436,0.00055178,0.00039855,-0.08333169,
 0.00198529,-0.02372851,0.00231223,0.01455376,0.02684966,-0.00217782,-0
 .01754535,0.00067909,0.00115937,-0.00020694,0.00025402,0.00084622,0.00
 070422,0.00086464,-0.00450939,-0.00379909,0.00047240,0.58470768,0.0000
 1251,0.00000473,-0.00000304,0.00000082,0.00000138,-0.00000381,0.000005
 93,0.00000301,0.00001225,0.00003740,-0.00004864,-0.00002172,-0.0000258
 9,0.00000743,0.00002032,-0.00000068,-0.00000280,-0.00000064,0.00003009
 ,0.00002239,0.00004412,-0.00000169,0.00000190,0.00000200,-0.00001081,-
 0.00000689,0.,-0.00011160,-0.00000916,-0.00002886,-0.00001432,0.000006
 17,-0.00000610,-0.00016546,0.00021566,-0.00007063,-0.00000023,0.000000
 79,0.00000053,-0.00000130,0.00000079,0.,-0.00000010,-0.00000046,-0.000
 00024,-0.00000203,-0.00000133,0.00000086,-0.00000197,-0.00000090,0.000
 00071,0.00000092,0.00000160,0.00000029,0.00000015,0.00000076,0.0000001
 5,0.00000346,-0.00000247,-0.00000242,-0.00000640,0.00002208,-0.0000124
 7,0.00000322,-0.00000617,0.00000110,-0.00001125,-0.00000208,-0.0000108
 5,-0.00001254,-0.00000709,-0.00002913,0.00013158,0.00024501,0.00011929
 ,-0.00334047,0.00043663,0.00184560,0.00022956,-0.00058243,0.00015348,0
 .00444266,-0.00046604,-0.00385834,-0.03665445,-0.00019032,0.00753102,-
 0.00056434,0.00173144,0.00275092,0.07768514,-0.00104901,-0.12564899,0.
 01722804,-0.00187224,-0.00921489,0.01921635,-0.00259931,-0.01343819,-0
 .00060806,0.00108227,0.00135149,0.00012733,0.00051530,0.00050048,0.000
 05512,-0.00324004,-0.00137824,0.04196083,0.00042321,0.56496932,-0.0000
 0027,0.00000020,0.00000027,-0.00000080,0.00000099,0.00000021,-0.000000
 59,0.00000047,0.00000052,-0.00000619,0.00000767,0.00000419,0.00000294,
 -0.00000228,-0.00000474,0.00000016,0.00000060,0.00000061,0.00000165,0.
 00000102,0.00000624,-0.00000010,-0.00000075,-0.00000116,0.00000219,-0.
 00000088,-0.00000091,0.00000864,-0.00000554,-0.00000255,0.00000182,-0.
 00000194,-0.00000065,0.00000408,-0.00001484,-0.00000378,0.00000020,-0.
 00000033,-0.00000026,0.00000001,-0.00000014,-0.00000004,0.00000024,0.0
 0000029,0.00000024,0.00000011,0.00000029,-0.00000001,0.00000015,-0.000
 00019,0.00000004,-0.00000146,0.00000017,0.00000025,-0.00000049,-0.0000
 0039,-0.00000060,-0.00000055,0.00000091,0.00000104,-0.00000163,0.00000
 011,0.00000252,-0.00000050,0.00000101,-0.00000188,0.00000003,-0.000000
 38,-0.00000068,0.00000296,0.00000087,0.00000370,-0.00000725,-0.0000068
 0,-0.00000863,0.00027261,-0.00003486,-0.00012922,-0.00000552,0.0000376
 4,-0.00000206,-0.00030282,0.00003994,0.00026115,0.00324049,0.00012640,
 0.00058809,-0.00060832,-0.00006853,-0.00051447,-0.00173467,0.02567565,
 0.01611000,0.00112621,-0.00042438,-0.00093598,-0.00516565,-0.00076887,
 0.00245723,-0.00004998,-0.00013378,-0.00011232,0.00024755,-0.00011640,
 0.00003481,-0.00005713,0.00137622,0.00109645,-0.04736814,0.00192363,0.
 00174753,0.04997355,-0.00000012,-0.00000046,-0.00000036,0.00000055,-0.
 00000044,-0.00000034,0.00000069,-0.00000105,-0.00000139,0.00000444,-0.
 00000424,-0.00000433,-0.00000192,0.00000179,0.00000483,-0.00000041,-0.
 00000043,-0.00000045,-0.00000205,-0.00000263,-0.00000839,0.00000016,0.
 00000095,0.00000159,-0.00000145,0.00000048,0.00000127,-0.00000194,0.00
 000265,0.00000518,-0.00000111,0.00000193,0.00000136,0.00000381,0.00000
 662,0.00000734,-0.00000016,0.00000023,0.00000021,0.00000017,0.00000016
 ,-0.00000003,-0.00000028,-0.00000050,-0.00000042,-0.00000027,-0.000000
 02,-0.00000002,0.00000010,0.00000015,0.00000004,0.00000120,0.00000007,
 -0.00000046,0.00000047,0.00000080,0.00000097,0.00000059,-0.00000122,-0
 .00000134,0.00000023,0.00000030,-0.00000312,0.00000018,-0.00000054,0.0
 0000116,-0.00000001,0.00000014,0.00000076,-0.00000176,-0.00000088,-0.0
 0000243,-0.00000025,0.00000363,-0.00000193,-0.00005311,0.00000381,0.00
 001703,-0.00000179,-0.00001384,-0.00000253,0.00009354,0.00002726,-0.00
 000697,0.00021987,0.00067656,0.00107796,0.00146823,-0.00041687,-0.0002
 3014,-0.00073266,-0.00037098,0.00086280,0.00068791,0.00067548,-0.00003
 898,0.00045866,0.00129309,-0.00031347,-0.00010563,0.00036771,0.0000839
 4,-0.00017609,-0.00009454,-0.00003236,-0.00012280,0.00005552,-0.000213
 03,0.00324382,-0.22893241,-0.12709878,-0.00462345,0.24354232,-0.000002
 35,-0.00000138,0.00000053,0.00000079,-0.00000247,0.00000031,0.00000013
 ,-0.00000041,-0.00000129,0.00000077,-0.00000491,0.00000097,0.00000174,
 0.00000276,0.00000095,-0.00000005,-0.00000080,0.00000008,-0.00000466,-
 0.00000272,-0.00000532,0.00000066,0.00000146,0.00000015,-0.00000055,0.
 00000304,0.00000025,0.00000056,0.00000661,0.00000065,0.00000047,0.0000
 0202,0.00000004,0.00000927,0.00000237,0.00000625,-0.00000025,0.0000001
 1,0.00000016,0.00000038,0.00000014,-0.00000003,-0.00000041,-0.00000046
 ,-0.00000024,0.00000030,0.00000008,-0.00000040,0.00000017,0.00000037,-
 0.00000006,0.00000060,-0.00000059,0.00000007,0.00000006,-0.00000005,0.
 00000068,-0.00000057,-0.00000080,-0.00000036,0.00000127,-0.00000315,-0
 .00000014,-0.00000078,0.00000003,0.00000014,0.00000085,0.00000018,0.00
 000037,-0.00000311,-0.00000028,-0.00000104,-0.00000459,-0.00001178,0.0
 0000775,-0.00002639,0.00000282,0.00000359,-0.00001008,-0.00000295,-0.0
 0000559,-0.00002368,0.00004369,-0.00001835,-0.00079206,0.00122476,0.00
 128152,0.00088950,-0.00018607,0.00032583,-0.00267528,-0.01503119,-0.01
 165349,-0.00055966,0.00023834,0.00040614,0.00379098,0.00093729,-0.0009
 3217,-0.00002102,-0.00019629,0.00006860,0.00003678,0.00026406,0.000238
 06,0.00024967,-0.00118877,-0.00036611,0.00369766,-0.12542777,-0.136059
 36,-0.00582523,0.13936931,0.14501283,0.00000852,0.00000313,-0.00000177
 ,0.00000089,0.00000070,-0.00000223,0.00000397,0.00000032,0.00000679,0.
 00002115,-0.00002556,-0.00001185,-0.00001644,0.00000343,0.00001119,0.0
 0000011,-0.00000145,-0.00000048,0.00001710,0.00001198,0.00002352,-0.00
 000193,0.00000108,0.00000095,-0.00000715,-0.00000372,0.00000015,-0.000
 05622,-0.00000274,-0.00001348,-0.00000886,0.00000360,-0.00000318,-0.00
 008438,0.00010075,-0.00003513,0.00000004,0.00000044,0.00000034,-0.0000
 0104,0.00000030,0.00000008,0.00000033,-0.00000017,-0.00000003,-0.00000
 083,-0.00000094,0.00000059,-0.00000141,-0.00000048,0.00000030,0.000001
 49,0.00000083,0.00000009,0.00000040,0.00000048,0.00000024,0.00000285,-
 0.00000131,-0.00000138,-0.00000137,0.00001092,-0.00000533,0.00000139,-
 0.00000291,0.00000063,-0.00000578,-0.00000078,-0.00000528,-0.00000406,
 -0.00000396,-0.00001386,0.00006520,0.00011994,0.00005969,-0.00136878,0
 .00018291,0.00069054,0.00011752,-0.00027830,0.00007362,0.00222595,-0.0
 0021752,-0.00146476,-0.00921932,-0.00007164,0.00218940,0.00047806,0.00
 067043,0.00069135,-0.01673720,0.00108024,-0.01982615,0.00093263,-0.000
 44481,0.00022090,0.00091935,-0.00023890,-0.00092331,-0.00006044,0.0000
 3057,0.00010862,0.00020607,0.00026720,0.00044267,0.00020742,-0.0002557
 5,0.00020725,-0.21496574,0.00689768,-0.13102263,0.00161031,-0.00056138
 ,0.00164498,0.23252602,-0.00000011,0.00000012,-0.00000024,-0.00000002,
 0.00000057,0.00000023,-0.00000053,0.00000033,-0.00000061,-0.00000154,0
 .00000129,0.00000022,0.00000057,-0.00000045,-0.00000034,-0.00000020,0.
 00000054,-0.00000012,0.00000004,0.00000040,0.00000046,0.00000022,-0.00
 000073,0.00000016,0.00000027,-0.00000087,0.00000003,0.00000022,-0.0000
 0117,-0.00000053,0.00000043,-0.00000073,0.00000005,0.00000082,-0.00000
 153,-0.00000025,0.00000003,0.,-0.00000006,-0.00000003,-0.00000004,0.,0
 .00000001,0.00000017,0.00000002,-0.00000011,0.00000006,0.00000008,0.00
 000012,-0.00000004,0.,-0.00000020,0.00000012,-0.00000011,0.00000009,0.
 00000003,-0.00000002,-0.00000016,0.00000038,0.00000019,-0.00000057,0.0
 0000070,-0.00000028,-0.00000016,-0.00000045,0.00000012,-0.00000006,-0.
 00000007,0.00000002,0.00000035,0.00000106,0.00000047,-0.00000706,0.000
 00611,0.00000589,-0.00002709,-0.00005447,0.00000954,0.00000565,0.00000
 084,-0.00000550,0.00001636,0.00015147,-0.00001901,0.00008373,0.0013574
 8,-0.00023412,0.00047439,-0.00003945,0.00021403,0.00032154,-0.00268310
 ,0.00056262,0.00019096,0.00004962,-0.00014426,-0.00006195,-0.00000491,
 -0.00010759,0.00004772,0.00001141,0.00001688,0.00033943,-0.00004004,-0
 .00023944,-0.00006077,-0.00001371,0.00010203,0.00655218,-0.04540116,0.
 00575241,-0.02145516,0.00170582,-0.01512084,-0.00770441,0.04451341,-0.
 00000083,-0.00000047,0.00000023,0.00000018,0.00000015,0.00000024,-0.00
 000035,-0.00000090,-0.00000188,-0.00000243,0.00000619,0.00000046,0.000
 00127,-0.00000111,-0.00000067,0.00000035,0.00000031,-0.00000034,-0.000
 00410,-0.00000338,-0.00000962,-0.00000025,-0.00000025,0.00000026,0.000
 00059,0.00000081,0.00000053,0.00001453,0.00000207,0.00000552,0.0000004
 4,-0.00000037,0.00000154,0.00002458,-0.00003347,0.00001332,0.,0.000000
 08,0.00000015,-0.00000008,-0.00000012,0.00000004,0.00000011,0.00000006
 ,0.,0.00000020,-0.00000006,0.00000013,0.00000006,0.00000005,-0.0000001
 5,0.00000062,-0.00000019,-0.00000024,0.00000035,0.00000022,0.00000014,
 0.00000041,0.,-0.00000024,0.00000175,-0.00000287,0.00000140,-0.0000003
 1,0.00000055,0.00000064,0.00000158,0.00000045,0.00000185,0.00000163,0.
 00000080,0.00000369,-0.00003331,-0.00003684,-0.00001151,0.00052402,-0.
 00008846,-0.00034623,-0.00003961,0.00009436,-0.00002718,-0.00072450,0.
 00006322,0.00075830,0.00658395,-0.00040535,0.00027792,0.00020270,-0.00
 015843,-0.00040263,0.01135417,-0.00078841,0.01122935,-0.00085913,0.000
 35524,0.00048222,-0.00041986,-0.00007927,0.00007603,-0.00000161,-0.000
 09203,0.00005842,0.00051657,-0.00021042,-0.00008564,-0.00002382,0.0001
 9623,0.00019628,-0.13481075,0.00606821,-0.15334679,-0.01328450,0.00176
 858,-0.01061475,0.14408371,-0.00555731,0.16206902,-0.00000209,-0.00000
 083,0.00000070,0.00000010,-0.00000139,0.00000099,-0.00000077,-0.000000
 40,-0.00000036,-0.00000376,-0.00000221,0.00000562,0.00000436,0.0000016
 7,-0.00000498,0.00000026,-0.00000044,0.00000072,-0.00000467,-0.0000010
 3,-0.00000008,0.00000057,0.00000079,-0.00000140,0.00000086,0.00000198,
 -0.00000080,0.00000631,0.00000481,-0.00000245,0.00000247,0.00000053,-0
 .00000074,0.00001181,-0.00000486,-0.00000213,0.00000008,-0.00000020,-0
 .00000013,0.00000029,-0.00000003,-0.00000004,-0.00000024,-0.00000005,0
 .00000018,0.00000060,0.00000031,-0.00000038,0.00000024,0.00000029,-0.0
 0000022,-0.00000047,-0.00000039,0.00000022,-0.00000020,-0.00000029,-0.
 00000048,-0.00000157,0.00000034,0.00000068,0.00000072,-0.00000238,0.00
 000167,-0.00000119,-0.00000056,-0.00000115,0.00000035,0.00000016,0.000
 00029,-0.00000038,-0.00000037,0.00000430,-0.00000412,-0.00001340,0.000
 00099,0.00023789,-0.00003199,-0.00010183,-0.00000490,0.00001208,-0.000
 00321,-0.00023076,0.00006217,0.00020672,0.00310144,0.00028470,-0.00046
 044,-0.00012675,-0.00020271,-0.00005494,-0.00433208,-0.02477213,0.0184
 2165,-0.00446439,0.00056674,0.00294912,0.00107231,-0.00110077,-0.00106
 563,0.00013330,0.00056719,-0.00017485,0.00004074,0.00007315,0.00002151
 ,-0.00000829,0.00003804,-0.00029963,-0.04798784,-0.01395131,0.00963758
 ,-0.00118381,0.00020403,-0.00037688,0.00319417,0.02128499,-0.01310833,
 0.05054944,-0.00000042,-0.00000026,0.00000071,0.00000022,-0.00000198,0
 .00000049,0.00000019,-0.00000074,0.00000096,-0.00000143,-0.00000510,0.
 00000402,0.00000117,0.00000173,-0.00000351,0.00000059,-0.00000097,0.00
 000086,-0.00000030,0.00000114,0.00000632,0.,0.00000108,-0.00000179,-0.
 00000022,0.00000226,-0.00000118,-0.00000319,0.00000503,-0.00000579,0.0
 0000054,0.00000156,-0.00000181,-0.00000312,0.00000526,-0.00000760,0.00
 000004,-0.00000014,-0.00000006,0.00000005,0.00000004,-0.00000005,-0.00
 000013,-0.00000004,0.00000028,0.00000049,0.00000010,-0.00000034,-0.000
 00014,0.00000020,-0.00000016,-0.00000012,-0.00000057,0.00000051,-0.000
 00036,-0.00000081,-0.00000023,-0.00000097,0.00000001,0.00000090,0.0000
 0077,-0.00000134,0.00000212,-0.00000031,-0.00000098,-0.00000126,-0.000
 00053,0.00000038,-0.00000063,0.00000035,-0.00000056,0.00000232,0.00000
 500,-0.00000080,0.00000740,-0.00004788,-0.00000743,0.00003203,0.000011
 67,-0.00001383,0.00000584,0.00010296,0.00001999,-0.00008823,-0.0006069
 5,0.00023778,-0.00069444,-0.00000352,-0.00016918,0.00016882,-0.0000401
 2,0.00011722,-0.00059303,0.00025315,0.00123604,-0.00028289,0.00013618,
 0.00105829,-0.00072596,0.00016168,0.00039079,0.00025962,-0.00010461,0.
 00000558,-0.00007550,-0.00007937,0.00013719,-0.00008402,-0.01566077,-0
 .22726023,0.12671119,-0.00153420,-0.01852642,0.01508424,0.00042983,0.0
 0044099,-0.00109792,0.01698380,0.24232870,-0.00000121,0.00000022,-0.00
 000045,-0.00000080,0.00000138,0.00000005,-0.00000121,0.00000108,-0.000
 00094,-0.00000454,0.00000881,0.00000058,0.00000306,-0.00000277,-0.0000
 0119,-0.00000059,0.00000132,-0.00000044,0.00000006,0.00000041,-0.00000
 036,0.00000060,-0.00000189,0.00000056,0.00000219,-0.00000134,0.0000002
 6,0.00000799,-0.00000548,0.00000253,0.00000198,-0.00000271,0.00000081,
 0.00000607,-0.00001536,0.00000329,0.,-0.00000005,-0.00000014,0.0000001
 6,-0.00000013,0.00000005,0.00000008,0.00000036,-0.00000002,-0.00000036
 ,0.00000007,0.00000015,0.00000037,-0.00000015,0.00000021,-0.00000090,0
 .00000014,-0.00000005,-0.00000034,-0.00000010,-0.00000011,-0.00000029,
 0.00000099,0.00000040,-0.00000142,-0.00000015,-0.00000014,-0.00000046,
 0.00000131,0.00000016,0.00000070,-0.00000040,0.00000030,0.00000126,0.0
 0000275,-0.00000002,-0.00001198,-0.00000937,-0.00000673,0.00005715,-0.
 00000299,-0.00004846,-0.00001942,0.00003611,-0.00000330,-0.00020887,-0
 .00000920,0.00008473,-0.00056897,-0.00095833,0.00182389,0.00013591,-0.
 00012657,-0.00007686,0.00012591,0.01562681,-0.01314788,0.00346217,-0.0
 0066135,-0.00079399,-0.00072014,0.00079970,0.00049528,0.00016066,-0.00
 050387,-0.00011247,0.00003048,-0.00006147,-0.00005387,-0.00005952,-0.0
 0019234,0.00026318,0.01180833,0.12517474,-0.13616921,-0.00148546,-0.01
 524306,0.01230276,0.00287324,0.01476513,-0.01032980,-0.01559191,-0.138
 62223,0.14576720\\0.00001358,0.00000984,-0.00000199,-0.00000683,0.0000
 0429,0.00000660,-0.00000608,0.00001318,-0.00000076,0.00001583,-0.00001
 288,-0.00001934,-0.00001222,0.00000962,0.00001788,0.00000078,0.0000040
 4,0.00001511,-0.00000992,-0.00000447,-0.00001230,0.00000547,0.00001721
 ,-0.00000222,0.00000057,0.00000306,0.00000319,-0.00000182,0.00000918,0
 .00001600,0.00000605,-0.00000499,0.00000250,0.00002064,0.00000933,0.00
 001976,0.00000236,0.00001328,-0.00000026,0.00000262,0.00001356,0.00000
 041,0.00000202,0.00000957,-0.00000254,-0.00000031,0.00001043,0.0000070
 0,-0.00000138,0.00000800,0.00000369,-0.00001240,0.00000515,0.00000823,
 -0.00000272,0.00000007,0.00000347,-0.00000243,0.00000854,-0.00000055,-
 0.00000540,0.00000163,-0.00000559,0.00000191,-0.00000324,0.00000096,0.
 00000263,-0.00000138,-0.00000175,-0.00000177,0.00000356,-0.00000410,0.
 00000996,-0.00000300,0.00000290,-0.00003242,0.00000478,0.00001998,0.00
 000964,-0.00001581,-0.00003061,0.00001810,-0.00000059,-0.00001825,-0.0
 0000916,-0.00000908,0.00001134,0.00000048,-0.00000989,0.00000190,-0.00
 001107,-0.00001241,-0.00001952,-0.00000082,-0.00000821,-0.00000121,0.0
 0000765,0.00000126,0.00001042,0.00000334,-0.00000775,-0.00000881,0.000
 00185,-0.00000506,-0.00000526,0.00000057,-0.00000391,-0.00000139,-0.00
 000787,-0.00000946,-0.00000375,-0.00000265,-0.00001742,-0.00000367,0.0
 0000113,-0.00001579,-0.00000184,0.00000007,-0.00001425,-0.00000560\\\@


 IN THE UNIVERSE THE DIFFICULT THINGS ARE DONE AS IF THEY WERE EASY.

                                                          -- LAO-TSU
 Job cpu time:       0 days 13 hours 53 minutes 28.3 seconds.
 Elapsed time:       0 days  0 hours 34 minutes 46.7 seconds.
 File lengths (MBytes):  RWF=   1135 Int=      0 D2E=      0 Chk=     36 Scr=      1
 Normal termination of Gaussian 16 at Thu Dec 13 00:12:11 2018.
