 Entering Gaussian System, Link 0=g16
 Initial command:
 /nopt/nrel/apps/gaussian/G16.sandy/g16/l1.exe "/scratch/ykim/gaussianScratch.6076990/Gau-14302.inp" -scrdir="/scratch/ykim/gaussianScratch.6076990/"
 Default linda workers: n0391
 Default is to use  24 SMP processors on each worker.
 Entering Link 1 = /nopt/nrel/apps/gaussian/G16.sandy/g16/l1.exe PID=     14303.
  
 Copyright (c) 1988,1990,1992,1993,1995,1998,2003,2009,2016,
            Gaussian, Inc.  All Rights Reserved.
  
 This is part of the Gaussian(R) 16 program.  It is based on
 the Gaussian(R) 09 system (copyright 2009, Gaussian, Inc.),
 the Gaussian(R) 03 system (copyright 2003, Gaussian, Inc.),
 the Gaussian(R) 98 system (copyright 1998, Gaussian, Inc.),
 the Gaussian(R) 94 system (copyright 1995, Gaussian, Inc.),
 the Gaussian 92(TM) system (copyright 1992, Gaussian, Inc.),
 the Gaussian 90(TM) system (copyright 1990, Gaussian, Inc.),
 the Gaussian 88(TM) system (copyright 1988, Gaussian, Inc.),
 the Gaussian 86(TM) system (copyright 1986, Carnegie Mellon
 University), and the Gaussian 82(TM) system (copyright 1983,
 Carnegie Mellon University). Gaussian is a federally registered
 trademark of Gaussian, Inc.
  
 This software contains proprietary and confidential information,
 including trade secrets, belonging to Gaussian, Inc.
  
 This software is provided under written license and may be
 used, copied, transmitted, or stored only in accord with that
 written license.
  
 The following legend is applicable only to US Government
 contracts under FAR:
  
                    RESTRICTED RIGHTS LEGEND
  
 Use, reproduction and disclosure by the US Government is
 subject to restrictions as set forth in subparagraphs (a)
 and (c) of the Commercial Computer Software - Restricted
 Rights clause in FAR 52.227-19.
  
 Gaussian, Inc.
 340 Quinnipiac St., Bldg. 40, Wallingford CT 06492
  
  
 ---------------------------------------------------------------
 Warning -- This program may not be used in any manner that
 competes with the business of Gaussian, Inc. or will provide
 assistance to any competitor of Gaussian, Inc.  The licensee
 of this program is prohibited from giving any competitor of
 Gaussian, Inc. access to this program.  By using this program,
 the user acknowledges that Gaussian, Inc. is engaged in the
 business of creating and licensing software in the field of
 computational chemistry and represents and warrants to the
 licensee that it is not a competitor of Gaussian, Inc. and that
 it will not use this program in any manner prohibited above.
 ---------------------------------------------------------------
  

 Cite this work as:
 Gaussian 16, Revision A.03,
 M. J. Frisch, G. W. Trucks, H. B. Schlegel, G. E. Scuseria, 
 M. A. Robb, J. R. Cheeseman, G. Scalmani, V. Barone, 
 G. A. Petersson, H. Nakatsuji, X. Li, M. Caricato, A. V. Marenich, 
 J. Bloino, B. G. Janesko, R. Gomperts, B. Mennucci, H. P. Hratchian, 
 J. V. Ortiz, A. F. Izmaylov, J. L. Sonnenberg, D. Williams-Young, 
 F. Ding, F. Lipparini, F. Egidi, J. Goings, B. Peng, A. Petrone, 
 T. Henderson, D. Ranasinghe, V. G. Zakrzewski, J. Gao, N. Rega, 
 G. Zheng, W. Liang, M. Hada, M. Ehara, K. Toyota, R. Fukuda, 
 J. Hasegawa, M. Ishida, T. Nakajima, Y. Honda, O. Kitao, H. Nakai, 
 T. Vreven, K. Throssell, J. A. Montgomery, Jr., J. E. Peralta, 
 F. Ogliaro, M. J. Bearpark, J. J. Heyd, E. N. Brothers, K. N. Kudin, 
 V. N. Staroverov, T. A. Keith, R. Kobayashi, J. Normand, 
 K. Raghavachari, A. P. Rendell, J. C. Burant, S. S. Iyengar, 
 J. Tomasi, M. Cossi, J. M. Millam, M. Klene, C. Adamo, R. Cammi, 
 J. W. Ochterski, R. L. Martin, K. Morokuma, O. Farkas, 
 J. B. Foresman, and D. J. Fox, Gaussian, Inc., Wallingford CT, 2016.
 
 ******************************************
 Gaussian 16:  ES64L-G16RevA.03 25-Dec-2016
                10-Dec-2018 
 ******************************************
 %nprocshared=24
 Will use up to   24 processors via shared memory.
 %mem=24GB
 SetLPE:    new flags="-opt 'Tsnet.Node.lindarsharg: ssh'  -nodelist 'n0391' -env GAUSS_MDEF=3221225472 -env GAUSS_EXEDIR="/nopt/nrel/apps/gaussian/G16.sandy/g16/bsd:/nopt/nrel/apps/gaussian/G16.sandy/g16/local:/nopt/nrel/apps/gaussian/G16.sandy/g16/extras:/nopt/nrel/apps/gaussian/G16.sandy/g16""
 Will use up to    1 processors via Linda.
 Default route: CacheSize=327680 MaxDisk=128GB
 ----------------------------------------------------------------------
 # opt freq m062x/6-311++g(d,p) scrf=(solvent=acetone,smd) scf=(xqc,max
 conventionalcycles=400) temperature=443.15
 ----------------------------------------------------------------------
 1/4=327680,18=20,19=15,26=3,38=1,112=443150/1,3;
 2/4=327680,9=110,12=2,17=6,18=5,40=1/2;
 3/4=327680,5=4,6=6,7=1111,11=2,25=1,30=1,70=32201,71=1,72=19,74=-55/1,2,3;
 4/4=327680/1;
 5/4=327680,5=2,8=3,13=1,38=5,53=19,85=400/2,8;
 6/4=327680,7=2,8=2,9=2,10=2,28=1/1;
 7/4=327680/1,2,3,16;
 1/4=327680,18=20,19=15,26=3/3(2);
 2/4=327680,9=110/2;
 99/4=327680/99;
 2/4=327680,9=110/2;
 3/4=327680,5=4,6=6,7=1111,11=2,25=1,30=1,70=32205,71=1,72=19,74=-55/1,2,3;
 4/4=327680,5=5,16=3,69=1/1;
 5/4=327680,5=2,8=3,13=1,38=5,53=19,85=400/2,8;
 7/4=327680/1,2,3,16;
 1/4=327680,18=20,19=15,26=3/3(-5);
 2/4=327680,9=110/2;
 6/4=327680,7=2,8=2,9=2,10=2,19=2,28=1/1;
 99/4=327680,9=1/99;
 -------------------
 Title Card Required
 -------------------
 Symbolic Z-matrix:
 Charge =  1 Multiplicity = 1
 C                     1.16535   0.354    -1.06178 
 C                     1.43105   1.14106   0.23538 
 C                     0.59568   0.39292   1.29473 
 C                    -0.58914  -0.04518   0.4102 
 O                    -0.04136  -0.4051   -0.80305 
 C                     2.2647   -0.58921  -1.4945 
 C                    -1.45959  -1.17481   0.93187 
 O                     2.62408  -1.39272  -0.3822 
 O                     0.87102   2.441     0.02968 
 O                    -1.45886   1.14176   0.22724 
 O                     1.22962  -0.69936   1.86943 
 O                    -2.33023  -1.66518  -0.08195 
 H                     1.89756  -1.20446  -2.32062 
 H                     3.11566   0.00546  -1.84182 
 H                     3.32424  -2.00902  -0.61447 
 H                     0.96417   1.05952  -1.87144 
 H                     2.48882   1.18879   0.49779 
 H                     1.2292    3.06925   0.66575 
 H                     0.27006   1.06184   2.09337 
 H                     1.7943   -1.1365    1.20969 
 H                    -0.90646   1.92416   0.00581 
 H                    -2.08202  -0.81725   1.75234 
 H                    -0.80502  -1.96242   1.30368 
 H                    -1.81873  -2.19018  -0.7082 
 H                    -3.05015   0.71762  -0.77378 
 O                    -3.84156   0.36037  -1.24933 
 H                    -3.782    -0.60564  -1.05141 
 H                    -4.71762   0.70579  -1.04123 
 O                    -6.62561   1.27494  -0.63507 
 C                    -7.21969   2.08862  -1.57815 
 C                    -8.28527   3.05933  -1.16308 
 H                    -8.35683   3.07547  -0.0956 
 H                    -8.03516   4.03705  -1.51861 
 H                    -9.22393   2.75789  -1.57896 
 C                    -6.79763   1.99932  -3.01477 
 H                    -5.85149   2.48327  -3.13929 
 H                    -6.71235   0.97108  -3.2982 
 H                    -7.52799   2.47992  -3.63161 
 
 Add virtual bond connecting atoms H25        and O10        Dist= 3.64D+00.
 Add virtual bond connecting atoms H27        and O12        Dist= 3.86D+00.
 Add virtual bond connecting atoms O29        and H28        Dist= 3.84D+00.

 GradGradGradGradGradGradGradGradGradGradGradGradGradGradGradGradGradGrad
 Berny optimization.
 Initialization pass.
                           ----------------------------
                           !    Initial Parameters    !
                           ! (Angstroms and Degrees)  !
 --------------------------                            --------------------------
 ! Name  Definition              Value          Derivative Info.                !
 --------------------------------------------------------------------------------
 ! R1    R(1,2)                  1.5404         estimate D2E/DX2                !
 ! R2    R(1,5)                  1.4489         estimate D2E/DX2                !
 ! R3    R(1,6)                  1.5118         estimate D2E/DX2                !
 ! R4    R(1,16)                 1.0926         estimate D2E/DX2                !
 ! R5    R(2,3)                  1.5426         estimate D2E/DX2                !
 ! R6    R(2,9)                  1.4303         estimate D2E/DX2                !
 ! R7    R(2,17)                 1.0909         estimate D2E/DX2                !
 ! R8    R(3,4)                  1.5421         estimate D2E/DX2                !
 ! R9    R(3,11)                 1.3875         estimate D2E/DX2                !
 ! R10   R(3,19)                 1.0915         estimate D2E/DX2                !
 ! R11   R(4,5)                  1.379          estimate D2E/DX2                !
 ! R12   R(4,7)                  1.5185         estimate D2E/DX2                !
 ! R13   R(4,10)                 1.4828         estimate D2E/DX2                !
 ! R14   R(6,8)                  1.4184         estimate D2E/DX2                !
 ! R15   R(6,13)                 1.0935         estimate D2E/DX2                !
 ! R16   R(6,14)                 1.0947         estimate D2E/DX2                !
 ! R17   R(7,12)                 1.4235         estimate D2E/DX2                !
 ! R18   R(7,22)                 1.0901         estimate D2E/DX2                !
 ! R19   R(7,23)                 1.0895         estimate D2E/DX2                !
 ! R20   R(8,15)                 0.9613         estimate D2E/DX2                !
 ! R21   R(9,18)                 0.9631         estimate D2E/DX2                !
 ! R22   R(10,21)                0.983          estimate D2E/DX2                !
 ! R23   R(10,25)                1.9272         estimate D2E/DX2                !
 ! R24   R(11,20)                0.9722         estimate D2E/DX2                !
 ! R25   R(12,24)                0.9641         estimate D2E/DX2                !
 ! R26   R(12,27)                2.0421         estimate D2E/DX2                !
 ! R27   R(25,26)                0.99           estimate D2E/DX2                !
 ! R28   R(26,27)                0.9879         estimate D2E/DX2                !
 ! R29   R(26,28)                0.9644         estimate D2E/DX2                !
 ! R30   R(28,29)                2.0321         estimate D2E/DX2                !
 ! R31   R(29,30)                1.38           estimate D2E/DX2                !
 ! R32   R(30,31)                1.5            estimate D2E/DX2                !
 ! R33   R(30,35)                1.5            estimate D2E/DX2                !
 ! R34   R(31,32)                1.07           estimate D2E/DX2                !
 ! R35   R(31,33)                1.07           estimate D2E/DX2                !
 ! R36   R(31,34)                1.07           estimate D2E/DX2                !
 ! R37   R(35,36)                1.07           estimate D2E/DX2                !
 ! R38   R(35,37)                1.07           estimate D2E/DX2                !
 ! R39   R(35,38)                1.07           estimate D2E/DX2                !
 ! A1    A(2,1,5)              105.128          estimate D2E/DX2                !
 ! A2    A(2,1,6)              115.7472         estimate D2E/DX2                !
 ! A3    A(2,1,16)             109.018          estimate D2E/DX2                !
 ! A4    A(5,1,6)              109.2612         estimate D2E/DX2                !
 ! A5    A(5,1,16)             108.4985         estimate D2E/DX2                !
 ! A6    A(6,1,16)             108.9452         estimate D2E/DX2                !
 ! A7    A(1,2,3)              103.7146         estimate D2E/DX2                !
 ! A8    A(1,2,9)              106.0059         estimate D2E/DX2                !
 ! A9    A(1,2,17)             113.0902         estimate D2E/DX2                !
 ! A10   A(3,2,9)              109.1172         estimate D2E/DX2                !
 ! A11   A(3,2,17)             112.4026         estimate D2E/DX2                !
 ! A12   A(9,2,17)             111.9927         estimate D2E/DX2                !
 ! A13   A(2,3,4)               99.2036         estimate D2E/DX2                !
 ! A14   A(2,3,11)             114.7586         estimate D2E/DX2                !
 ! A15   A(2,3,19)             111.5187         estimate D2E/DX2                !
 ! A16   A(4,3,11)             111.4051         estimate D2E/DX2                !
 ! A17   A(4,3,19)             111.3824         estimate D2E/DX2                !
 ! A18   A(11,3,19)            108.402          estimate D2E/DX2                !
 ! A19   A(3,4,5)              105.8781         estimate D2E/DX2                !
 ! A20   A(3,4,7)              117.046          estimate D2E/DX2                !
 ! A21   A(3,4,10)             107.0979         estimate D2E/DX2                !
 ! A22   A(5,4,7)              109.621          estimate D2E/DX2                !
 ! A23   A(5,4,10)             109.4726         estimate D2E/DX2                !
 ! A24   A(7,4,10)             107.5566         estimate D2E/DX2                !
 ! A25   A(1,5,4)              110.5611         estimate D2E/DX2                !
 ! A26   A(1,6,8)              108.2528         estimate D2E/DX2                !
 ! A27   A(1,6,13)             108.8517         estimate D2E/DX2                !
 ! A28   A(1,6,14)             108.4912         estimate D2E/DX2                !
 ! A29   A(8,6,13)             111.0241         estimate D2E/DX2                !
 ! A30   A(8,6,14)             111.0737         estimate D2E/DX2                !
 ! A31   A(13,6,14)            109.0829         estimate D2E/DX2                !
 ! A32   A(4,7,12)             111.2348         estimate D2E/DX2                !
 ! A33   A(4,7,22)             109.989          estimate D2E/DX2                !
 ! A34   A(4,7,23)             108.0962         estimate D2E/DX2                !
 ! A35   A(12,7,22)            107.4458         estimate D2E/DX2                !
 ! A36   A(12,7,23)            111.1915         estimate D2E/DX2                !
 ! A37   A(22,7,23)            108.8622         estimate D2E/DX2                !
 ! A38   A(6,8,15)             110.9932         estimate D2E/DX2                !
 ! A39   A(2,9,18)             110.6257         estimate D2E/DX2                !
 ! A40   A(4,10,21)            109.591          estimate D2E/DX2                !
 ! A41   A(4,10,25)            111.8526         estimate D2E/DX2                !
 ! A42   A(21,10,25)           121.4772         estimate D2E/DX2                !
 ! A43   A(3,11,20)            109.7703         estimate D2E/DX2                !
 ! A44   A(7,12,24)            109.0095         estimate D2E/DX2                !
 ! A45   A(7,12,27)            126.4556         estimate D2E/DX2                !
 ! A46   A(24,12,27)           110.5702         estimate D2E/DX2                !
 ! A47   A(25,26,27)           102.0307         estimate D2E/DX2                !
 ! A48   A(25,26,28)           119.5549         estimate D2E/DX2                !
 ! A49   A(27,26,28)           111.2097         estimate D2E/DX2                !
 ! A50   A(12,27,26)           130.1917         estimate D2E/DX2                !
 ! A51   A(28,29,30)           115.6428         estimate D2E/DX2                !
 ! A52   A(29,30,31)           119.8865         estimate D2E/DX2                !
 ! A53   A(29,30,35)           119.8865         estimate D2E/DX2                !
 ! A54   A(31,30,35)           120.2269         estimate D2E/DX2                !
 ! A55   A(30,31,32)           109.4712         estimate D2E/DX2                !
 ! A56   A(30,31,33)           109.4712         estimate D2E/DX2                !
 ! A57   A(30,31,34)           109.4712         estimate D2E/DX2                !
 ! A58   A(32,31,33)           109.4713         estimate D2E/DX2                !
 ! A59   A(32,31,34)           109.4712         estimate D2E/DX2                !
 ! A60   A(33,31,34)           109.4712         estimate D2E/DX2                !
 ! A61   A(30,35,36)           109.4712         estimate D2E/DX2                !
 ! A62   A(30,35,37)           109.4712         estimate D2E/DX2                !
 ! A63   A(30,35,38)           109.4712         estimate D2E/DX2                !
 ! A64   A(36,35,37)           109.4713         estimate D2E/DX2                !
 ! A65   A(36,35,38)           109.4712         estimate D2E/DX2                !
 ! A66   A(37,35,38)           109.4712         estimate D2E/DX2                !
 ! A67   L(10,25,26,12,-1)     171.4972         estimate D2E/DX2                !
 ! A68   L(26,28,29,36,-1)     181.4849         estimate D2E/DX2                !
 ! A69   L(10,25,26,12,-2)     179.5793         estimate D2E/DX2                !
 ! A70   L(26,28,29,36,-2)     174.9232         estimate D2E/DX2                !
 ! D1    D(5,1,2,3)             18.4578         estimate D2E/DX2                !
 ! D2    D(5,1,2,9)            -96.422          estimate D2E/DX2                !
 ! D3    D(5,1,2,17)           140.4975         estimate D2E/DX2                !
 ! D4    D(6,1,2,3)           -102.1904         estimate D2E/DX2                !
 ! D5    D(6,1,2,9)            142.9299         estimate D2E/DX2                !
 ! D6    D(6,1,2,17)            19.8493         estimate D2E/DX2                !
 ! D7    D(16,1,2,3)           134.6145         estimate D2E/DX2                !
 ! D8    D(16,1,2,9)            19.7348         estimate D2E/DX2                !
 ! D9    D(16,1,2,17)         -103.3458         estimate D2E/DX2                !
 ! D10   D(2,1,5,4)              6.8437         estimate D2E/DX2                !
 ! D11   D(6,1,5,4)            131.6738         estimate D2E/DX2                !
 ! D12   D(16,1,5,4)          -109.6695         estimate D2E/DX2                !
 ! D13   D(2,1,6,8)             49.9261         estimate D2E/DX2                !
 ! D14   D(2,1,6,13)           170.7091         estimate D2E/DX2                !
 ! D15   D(2,1,6,14)           -70.7061         estimate D2E/DX2                !
 ! D16   D(5,1,6,8)            -68.4624         estimate D2E/DX2                !
 ! D17   D(5,1,6,13)            52.3205         estimate D2E/DX2                !
 ! D18   D(5,1,6,14)           170.9053         estimate D2E/DX2                !
 ! D19   D(16,1,6,8)           173.1594         estimate D2E/DX2                !
 ! D20   D(16,1,6,13)          -66.0576         estimate D2E/DX2                !
 ! D21   D(16,1,6,14)           52.5272         estimate D2E/DX2                !
 ! D22   D(1,2,3,4)            -33.6138         estimate D2E/DX2                !
 ! D23   D(1,2,3,11)            85.1938         estimate D2E/DX2                !
 ! D24   D(1,2,3,19)          -151.0593         estimate D2E/DX2                !
 ! D25   D(9,2,3,4)             79.0291         estimate D2E/DX2                !
 ! D26   D(9,2,3,11)          -162.1633         estimate D2E/DX2                !
 ! D27   D(9,2,3,19)           -38.4165         estimate D2E/DX2                !
 ! D28   D(17,2,3,4)          -156.1101         estimate D2E/DX2                !
 ! D29   D(17,2,3,11)          -37.3025         estimate D2E/DX2                !
 ! D30   D(17,2,3,19)           86.4444         estimate D2E/DX2                !
 ! D31   D(1,2,9,18)          -162.1871         estimate D2E/DX2                !
 ! D32   D(3,2,9,18)            86.6836         estimate D2E/DX2                !
 ! D33   D(17,2,9,18)          -38.4164         estimate D2E/DX2                !
 ! D34   D(2,3,4,5)             39.1342         estimate D2E/DX2                !
 ! D35   D(2,3,4,7)            161.6277         estimate D2E/DX2                !
 ! D36   D(2,3,4,10)           -77.616          estimate D2E/DX2                !
 ! D37   D(11,3,4,5)           -82.1447         estimate D2E/DX2                !
 ! D38   D(11,3,4,7)            40.3488         estimate D2E/DX2                !
 ! D39   D(11,3,4,10)          161.1051         estimate D2E/DX2                !
 ! D40   D(19,3,4,5)           156.6827         estimate D2E/DX2                !
 ! D41   D(19,3,4,7)           -80.8238         estimate D2E/DX2                !
 ! D42   D(19,3,4,10)           39.9325         estimate D2E/DX2                !
 ! D43   D(2,3,11,20)          -34.5176         estimate D2E/DX2                !
 ! D44   D(4,3,11,20)           77.196          estimate D2E/DX2                !
 ! D45   D(19,3,11,20)        -159.9075         estimate D2E/DX2                !
 ! D46   D(3,4,5,1)            -29.6853         estimate D2E/DX2                !
 ! D47   D(7,4,5,1)           -156.7911         estimate D2E/DX2                !
 ! D48   D(10,4,5,1)            85.4519         estimate D2E/DX2                !
 ! D49   D(3,4,7,12)          -167.8588         estimate D2E/DX2                !
 ! D50   D(3,4,7,22)            73.2201         estimate D2E/DX2                !
 ! D51   D(3,4,7,23)           -45.5166         estimate D2E/DX2                !
 ! D52   D(5,4,7,12)           -47.3196         estimate D2E/DX2                !
 ! D53   D(5,4,7,22)          -166.2407         estimate D2E/DX2                !
 ! D54   D(5,4,7,23)            75.0226         estimate D2E/DX2                !
 ! D55   D(10,4,7,12)           71.6265         estimate D2E/DX2                !
 ! D56   D(10,4,7,22)          -47.2946         estimate D2E/DX2                !
 ! D57   D(10,4,7,23)         -166.0313         estimate D2E/DX2                !
 ! D58   D(3,4,10,21)           45.848          estimate D2E/DX2                !
 ! D59   D(3,4,10,25)         -176.4305         estimate D2E/DX2                !
 ! D60   D(5,4,10,21)          -68.5059         estimate D2E/DX2                !
 ! D61   D(5,4,10,25)           69.2156         estimate D2E/DX2                !
 ! D62   D(7,4,10,21)          172.4529         estimate D2E/DX2                !
 ! D63   D(7,4,10,25)          -49.8256         estimate D2E/DX2                !
 ! D64   D(1,6,8,15)          -179.9341         estimate D2E/DX2                !
 ! D65   D(13,6,8,15)           60.6423         estimate D2E/DX2                !
 ! D66   D(14,6,8,15)          -60.9225         estimate D2E/DX2                !
 ! D67   D(4,7,12,24)           74.1861         estimate D2E/DX2                !
 ! D68   D(4,7,12,27)          -61.5841         estimate D2E/DX2                !
 ! D69   D(22,7,12,24)        -165.3805         estimate D2E/DX2                !
 ! D70   D(22,7,12,27)          58.8493         estimate D2E/DX2                !
 ! D71   D(23,7,12,24)         -46.3484         estimate D2E/DX2                !
 ! D72   D(23,7,12,27)         177.8813         estimate D2E/DX2                !
 ! D73   D(4,10,26,27)          20.4892         estimate D2E/DX2                !
 ! D74   D(4,10,26,28)         140.7265         estimate D2E/DX2                !
 ! D75   D(21,10,26,27)        151.9862         estimate D2E/DX2                !
 ! D76   D(21,10,26,28)        -87.7765         estimate D2E/DX2                !
 ! D77   D(7,12,27,26)          28.3427         estimate D2E/DX2                !
 ! D78   D(24,12,27,26)       -106.8755         estimate D2E/DX2                !
 ! D79   D(25,26,27,12)         -5.5279         estimate D2E/DX2                !
 ! D80   D(28,26,27,12)       -134.1134         estimate D2E/DX2                !
 ! D81   D(25,26,29,30)        107.1946         estimate D2E/DX2                !
 ! D82   D(27,26,29,30)       -134.858          estimate D2E/DX2                !
 ! D83   D(28,29,30,31)       -151.6582         estimate D2E/DX2                !
 ! D84   D(28,29,30,35)         28.3418         estimate D2E/DX2                !
 ! D85   D(29,30,31,32)          7.6333         estimate D2E/DX2                !
 ! D86   D(29,30,31,33)        127.6333         estimate D2E/DX2                !
 ! D87   D(29,30,31,34)       -112.3667         estimate D2E/DX2                !
 ! D88   D(35,30,31,32)       -172.3667         estimate D2E/DX2                !
 ! D89   D(35,30,31,33)        -52.3667         estimate D2E/DX2                !
 ! D90   D(35,30,31,34)         67.6333         estimate D2E/DX2                !
 ! D91   D(29,30,35,36)        -75.7981         estimate D2E/DX2                !
 ! D92   D(29,30,35,37)         44.2019         estimate D2E/DX2                !
 ! D93   D(29,30,35,38)        164.2019         estimate D2E/DX2                !
 ! D94   D(31,30,35,36)        104.2019         estimate D2E/DX2                !
 ! D95   D(31,30,35,37)       -135.7981         estimate D2E/DX2                !
 ! D96   D(31,30,35,38)        -15.7981         estimate D2E/DX2                !
 --------------------------------------------------------------------------------
 Trust Radius=3.00D-01 FncErr=1.00D-07 GrdErr=1.00D-06 EigMax=2.50D+02 EigMin=1.00D-04
 Number of steps in this run=    215 maximum allowed number of steps=    228.
 GradGradGradGradGradGradGradGradGradGradGradGradGradGradGradGradGradGrad

                          Input orientation:                          
 ---------------------------------------------------------------------
 Center     Atomic      Atomic             Coordinates (Angstroms)
 Number     Number       Type             X           Y           Z
 ---------------------------------------------------------------------
      1          6           0        1.165349    0.354000   -1.061782
      2          6           0        1.431047    1.141056    0.235380
      3          6           0        0.595683    0.392918    1.294731
      4          6           0       -0.589142   -0.045184    0.410204
      5          8           0       -0.041360   -0.405099   -0.803048
      6          6           0        2.264701   -0.589214   -1.494503
      7          6           0       -1.459593   -1.174814    0.931871
      8          8           0        2.624075   -1.392719   -0.382201
      9          8           0        0.871020    2.441001    0.029676
     10          8           0       -1.458860    1.141764    0.227241
     11          8           0        1.229619   -0.699357    1.869433
     12          8           0       -2.330233   -1.665181   -0.081953
     13          1           0        1.897558   -1.204463   -2.320615
     14          1           0        3.115660    0.005463   -1.841822
     15          1           0        3.324235   -2.009025   -0.614465
     16          1           0        0.964168    1.059518   -1.871437
     17          1           0        2.488824    1.188785    0.497786
     18          1           0        1.229196    3.069247    0.665748
     19          1           0        0.270063    1.061836    2.093374
     20          1           0        1.794297   -1.136499    1.209689
     21          1           0       -0.906461    1.924161    0.005811
     22          1           0       -2.082016   -0.817251    1.752337
     23          1           0       -0.805022   -1.962417    1.303677
     24          1           0       -1.818730   -2.190182   -0.708197
     25          1           0       -3.050155    0.717621   -0.773779
     26          8           0       -3.841559    0.360370   -1.249332
     27          1           0       -3.781995   -0.605643   -1.051413
     28          1           0       -4.717617    0.705795   -1.041229
     29          8           0       -6.625608    1.274942   -0.635071
     30          6           0       -7.219688    2.088625   -1.578146
     31          6           0       -8.285268    3.059327   -1.163083
     32          1           0       -8.356828    3.075474   -0.095601
     33          1           0       -8.035160    4.037050   -1.518615
     34          1           0       -9.223930    2.757890   -1.578955
     35          6           0       -6.797632    1.999325   -3.014772
     36          1           0       -5.851487    2.483273   -3.139292
     37          1           0       -6.712346    0.971076   -3.298201
     38          1           0       -7.527994    2.479924   -3.631615
 ---------------------------------------------------------------------
                    Distance matrix (angstroms):
                    1          2          3          4          5
     1  C    0.000000
     2  C    1.540351   0.000000
     3  C    2.424704   1.542650   0.000000
     4  C    2.324721   2.349232   1.542119   0.000000
     5  O    1.448903   2.374218   2.333095   1.378979   0.000000
     6  C    1.511779   2.584823   3.395590   3.473945   2.414524
     7  C    3.633489   3.768840   2.610289   1.518514   2.369344
     8  O    2.375024   2.867880   3.180405   3.573307   2.873508
     9  O    2.373496   1.430315   2.422977   2.908262   3.102604
    10  O    3.027974   2.889919   2.433403   1.482812   2.337432
    11  O    3.115399   2.469377   1.387524   2.421814   2.973908
    12  O    4.154064   4.703498   3.833016   2.428581   2.710484
    13  H    2.132979   3.500315   4.161398   3.871043   2.588705
    14  H    2.129238   2.905557   4.042075   4.335867   3.348789
    15  H    3.231837   3.772189   4.106015   4.496792   3.733011
    16  H    1.092598   2.159468   3.256495   2.973050   2.073076
    17  H    2.209232   1.090884   2.202841   3.317262   3.261053
    18  H    3.218851   1.985921   2.821293   3.615430   3.980296
    19  H    3.355231   2.192328   1.091472   2.190157   3.261617
    20  H    2.788681   2.503694   1.945000   2.740607   2.820584
    21  H    2.810259   2.475863   2.502490   2.035324   2.613064
    22  H    4.453816   4.298574   2.973884   2.150833   3.296079
    23  H    3.852732   3.971499   2.740375   2.126189   2.728866
    24  H    3.937336   4.748530   4.063683   2.713618   2.520826
    25  H    4.240948   4.612902   4.204319   2.835537   3.211573
    26  O    5.010424   5.533012   5.114923   3.673792   3.902131
    27  H    5.039567   5.646468   5.066121   3.555946   3.754232
    28  H    5.893511   6.294859   5.812552   4.440150   4.812296
    29  O    7.856795   8.104647   7.526563   6.266918   6.797285
    30  C    8.578135   8.889431   8.497581   7.243675   7.638575
    31  C    9.830728  10.002112   9.592804   8.446513   8.949519
    32  H    9.950467   9.982686   9.448629   8.386375   9.042228
    33  H    9.920832  10.053474   9.781925   8.707936   9.173089
    34  H   10.676295  10.928609  10.501236   9.293737   9.743004
    35  C    8.362435   8.888828   8.707092   7.379418   7.504677
    36  H    7.621407   8.137891   8.099145   6.832591   6.896253
    37  H    8.212213   8.878623   8.650814   7.230400   7.254082
    38  H    9.311166   9.849397   9.727209   8.417846   8.507281
                    6          7          8          9         10
     6  C    0.000000
     7  C    4.483367   0.000000
     8  O    1.418445   4.295418   0.000000
     9  O    3.667107   4.395433   4.235594   0.000000
    10  O    4.452594   2.421371   4.844108   2.674956   0.000000
    11  O    3.521305   2.887376   2.737721   3.657205   3.648896
    12  O    4.926096   1.423486   4.970870   5.207803   2.955306
    13  H    1.093520   4.674399   2.078633   4.457248   4.823058
    14  H    1.094716   5.478993   2.080159   3.804308   5.147663
    15  H    1.978116   5.096280   0.961251   5.122100   5.789122
    16  H    2.133491   4.327285   3.314601   2.351893   3.206599
    17  H    2.679688   4.622232   2.730720   2.098681   3.957223
    18  H    4.373019   5.031149   4.790932   0.963105   3.336634
    19  H    4.424637   3.056698   4.206505   2.553839   2.545195
    20  H    2.798831   3.265953   1.813365   3.878579   4.091298
    21  H    4.315584   3.281339   4.859725   1.851251   0.983016
    22  H    5.430278   1.090150   5.199491   4.722731   2.559684
    23  H    4.374780   1.089505   3.863347   4.880808   3.349949
    24  H    4.455983   1.962084   4.525565   5.406206   3.479427
    25  H    5.520412   3.003405   6.066609   4.357888   1.927215
    26  O    6.184515   3.576059   6.754973   5.307852   2.910000
    27  H    6.062931   3.106593   6.488842   5.665805   3.175743
    28  H    7.115846   4.247886   7.664106   5.949004   3.524001
    29  O    9.124215   5.928265   9.630005   7.615840   5.239905
    30  C    9.855529   7.080178  10.509506   8.256441   6.110901
    31  C   11.167969   8.301001  11.808652   9.254329   7.225642
    32  H   11.322709   8.166548  11.858631   9.250483   7.171152
    33  H   11.291148   8.741080  12.016369   9.179576   7.394485
    34  H   11.966573   9.058440  12.610908  10.227225   8.134526
    35  C    9.546603   7.358383  10.353982   8.262685   6.304644
    36  H    8.832781   7.017457   9.719055   7.432110   5.694591
    37  H    9.288445   7.077413  10.062770   8.410879   6.329059
    38  H   10.482544   8.426624  11.341100   9.162423   7.315451
                   11         12         13         14         15
    11  O    0.000000
    12  O    4.172921   0.000000
    13  H    4.272912   4.806047   0.000000
    14  H    4.222243   5.962042   1.782396   0.000000
    15  H    3.503198   5.689886   2.365095   2.368137   0.000000
    16  H    4.142247   4.634578   2.489696   2.396002   4.070117
    17  H    2.651809   5.630678   3.744411   2.695726   3.487263
    18  H    3.956164   5.970209   5.256393   4.385593   5.640654
    19  H    2.018093   4.350886   5.221891   4.969820   5.107891
    20  H    0.972222   4.354261   3.532468   3.515935   2.535656
    21  H    3.862483   3.862409   4.802402   4.824169   5.809775
    22  H    3.315801   2.035981   5.707528   6.372650   6.020766
    23  H    2.460724   2.081967   4.584095   5.398005   4.553263
    24  H    4.261357   0.964076   4.169212   5.518529   5.147008
    25  H    5.225979   2.583536   5.528740   6.298028   6.934899
    26  O    6.047029   2.783835   6.044321   6.991416   7.574014
    27  H    5.801414   2.042079   5.850366   6.969637   7.256646
    28  H    6.768753   3.498762   7.003317   7.905166   8.498456
    29  O    8.477912   5.234550   9.035091   9.897481  10.477798
    30  C    9.541983   6.343219   9.722133  10.546493  11.353138
    31  C   10.670377   7.678038  11.099988  11.822349  12.679501
    32  H   10.488597   7.667715  11.332298  12.003843  12.750239
    33  H   10.942968   8.193023  11.259465  11.861658  12.899936
    34  H   11.537791   8.326322  11.829531  12.645570  13.457718
    35  C    9.776251   6.479790   9.292601  10.179619  11.148117
    36  H    9.238968   6.241492   8.620750   9.393227  10.523753
    37  H    9.621310   6.041276   8.934153   9.982142  10.808164
    38  H   10.819664   7.536492  10.204629  11.073106  12.125375
                   16         17         18         19         20
    16  H    0.000000
    17  H    2.820373   0.000000
    18  H    3.247546   2.269584   0.000000
    19  H    4.025110   2.735858   2.643435   0.000000
    20  H    3.873621   2.529055   4.278260   2.817244   0.000000
    21  H    2.787637   3.508672   2.511527   2.546710   4.255709
    22  H    5.092469   5.146908   5.220121   3.029777   3.927109
    23  H    4.726888   4.629142   5.464672   3.305380   2.728999
    24  H    4.433757   5.605964   6.232108   4.773623   4.224038
    25  H    4.175707   5.702557   5.090700   4.400329   5.553433
    26  O    4.896002   6.619097   6.059547   5.345201   6.328529
    27  H    5.096201   6.703966   6.447131   5.393454   6.040648
    28  H    5.753003   7.384757   6.623010   5.901648   7.132020
    29  O    7.692835   9.184970   8.161471   7.418902   8.950586
    30  C    8.253520   9.968672   8.796609   8.404209   9.971228
    31  C    9.489630  11.060672   9.688640   9.369534  11.172853
    32  H    9.700445  11.024512   9.616213   9.125218  11.067513
    33  H    9.485678  11.087503   9.567464   9.532843  11.437984
    34  H   10.332829  11.998481  10.695956  10.319811  12.014330
    35  C    7.901644   9.961591   8.894994   8.770652  10.074755
    36  H    7.077266   9.190475   8.059639   8.177693   9.511804
    37  H    7.808479   9.955825   9.120488   8.822208   9.855248
    38  H    8.788208  10.911262   9.772564   9.777329  11.109538
                   21         22         23         24         25
    21  H    0.000000
    22  H    3.456533   0.000000
    23  H    4.098809   1.772968   0.000000
    24  H    4.274326   2.829927   2.264314   0.000000
    25  H    2.580489   3.110368   4.066823   3.158485   0.000000
    26  O    3.554663   3.673254   4.597146   3.299997   0.990000
    27  H    3.973201   3.285684   4.031086   2.546168   1.537433
    28  H    4.135894   4.131594   5.284538   4.111099   1.688816
    29  O    5.791447   5.542673   6.936748   5.926088   3.621287
    30  C    6.510976   6.777308   8.115651   6.945167   4.462249
    31  C    7.556567   7.874507   9.341140   8.341486   5.748179
    32  H    7.539481   7.611928   9.185211   8.417193   5.846382
    33  H    7.589896   8.348849   9.809884   8.836243   6.035202
    34  H    8.508048   8.653674  10.073176   8.948666   6.551832
    35  C    6.620835   7.272926   8.381871   6.903746   4.550648
    36  H    5.887068   7.002172   8.060456   6.634345   4.069477
    37  H    6.747827   7.081384   8.042334   6.375669   4.455176
    38  H    7.575252   8.337684   9.449331   7.934227   5.596783
                   26         27         28         29         30
    26  O    0.000000
    27  H    0.987877   0.000000
    28  H    0.964418   1.611013   0.000000
    29  O    2.994109   3.434542   2.032074   0.000000
    30  C    3.808772   4.399348   2.908756   1.380000   0.000000
    31  C    5.199842   5.807232   4.275757   2.493450   1.500000
    32  H    5.393565   5.949227   4.444485   2.555399   2.113031
    33  H    5.583617   6.313659   4.725595   3.224395   2.113031
    34  H    5.901413   6.419214   4.980673   3.137089   2.113031
    35  C    3.813308   4.442375   3.145561   2.493450   1.500000
    36  H    3.481161   4.264205   2.974384   2.886252   2.113031
    37  H    3.579420   4.015104   3.023779   2.681812   2.113031
    38  H    4.874175   5.496424   4.213769   3.353439   2.113031
                   31         32         33         34         35
    31  C    0.000000
    32  H    1.070000   0.000000
    33  H    1.070000   1.747303   0.000000
    34  H    1.070000   1.747303   1.747303   0.000000
    35  C    2.601042   3.480050   2.814656   2.919574   0.000000
    36  H    3.187559   3.986414   3.131971   3.726048   1.070000
    37  H    3.375441   4.170067   3.783776   3.529385   1.070000
    38  H    2.646284   3.680359   2.673318   2.677102   1.070000
                   36         37         38
    36  H    0.000000
    37  H    1.747303   0.000000
    38  H    1.747303   1.747303   0.000000
 Stoichiometry    C9H21O8(1+)
 Framework group  C1[X(C9H21O8)]
 Deg. of freedom   108
 Full point group                 C1      NOp   1
 Largest Abelian subgroup         C1      NOp   1
 Largest concise Abelian subgroup C1      NOp   1
                         Standard orientation:                         
 ---------------------------------------------------------------------
 Center     Atomic      Atomic             Coordinates (Angstroms)
 Number     Number       Type             X           Y           Z
 ---------------------------------------------------------------------
      1          6           0       -2.648995    0.854702    0.982659
      2          6           0       -2.943344    1.362024   -0.441653
      3          6           0       -2.527750    0.181509   -1.343560
      4          6           0       -1.347753   -0.360780   -0.511898
      5          8           0       -1.736630   -0.257084    0.807043
      6          6           0       -3.849907    0.393663    1.776844
      7          6           0       -0.895258   -1.781405   -0.799919
      8          8           0       -4.594335   -0.507763    0.973573
      9          8           0       -2.050395    2.457301   -0.662588
     10          8           0       -0.192377    0.535334   -0.758505
     11          8           0       -3.506864   -0.785010   -1.523556
     12          8           0       -0.003517   -2.252170    0.204816
     13          1           0       -3.502439   -0.092192    2.692812
     14          1           0       -4.448457    1.271059    2.042018
     15          1           0       -5.370958   -0.825918    1.442228
     16          1           0       -2.134653    1.640329    1.541241
     17          1           0       -3.985734    1.649119   -0.586651
     18          1           0       -2.351400    2.996689   -1.401525
     19          1           0       -2.197824    0.524832   -2.325695
     20          1           0       -4.032065   -0.876475   -0.710528
     21          1           0       -0.483297    1.472387   -0.698344
     22          1           0       -0.364222   -1.817712   -1.751291
     23          1           0       -1.781339   -2.411803   -0.866843
     24          1           0       -0.506052   -2.448320    1.003832
     25          1           0        1.399053   -0.083625    0.135026
     26          8           0        2.150145   -0.532617    0.598025
     27          1           0        1.817603   -1.459299    0.679120
     28          1           0        3.031297   -0.511125    0.206603
     29          8           0        4.913527   -0.623664   -0.550940
     30          6           0        5.852862    0.180672    0.061508
     31          6           0        7.031690    0.681043   -0.719511
     32          1           0        6.908825    0.428227   -1.751930
     33          1           0        7.101317    1.743981   -0.618436
     34          1           0        7.925827    0.227853   -0.345294
     35          6           0        5.691545    0.551579    1.505948
     36          1           0        4.934273    1.301750    1.599129
     37          1           0        5.406995   -0.314063    2.066836
     38          1           0        6.618293    0.931630    1.882244
 ---------------------------------------------------------------------
 Rotational constants (GHZ):           0.8619479           0.1397327           0.1366304
 Standard basis: 6-311++G(d,p) (5D, 7F)
 There are   538 symmetry adapted cartesian basis functions of A   symmetry.
 There are   521 symmetry adapted basis functions of A   symmetry.
   521 basis functions,   801 primitive gaussians,   538 cartesian basis functions
    69 alpha electrons       69 beta electrons
       nuclear repulsion energy      1365.1865807219 Hartrees.
 NAtoms=   38 NActive=   38 NUniq=   38 SFac= 1.00D+00 NAtFMM=   60 NAOKFM=F Big=F
 Integral buffers will be    131072 words long.
 Raffenetti 2 integral format.
 Two-electron integral symmetry is turned on.
 ------------------------------------------------------------------------------
 Polarizable Continuum Model (PCM)
 =================================
 Model                : PCM.
 Atomic radii         : SMD-Coulomb.
 Polarization charges : Total charges.
 Charge compensation  : None.
 Solution method      : On-the-fly selection.
 Cavity type          : VdW (van der Waals Surface) (Alpha=1.000).
 Cavity algorithm     : GePol (No added spheres)
                        Default sphere list used, NSphG=   38.
                        Lebedev-Laikov grids with approx.  5.0 points / Ang**2.
                        Smoothing algorithm: York/Karplus (Gamma=1.0000).
                        Polarization charges: spherical gaussians, with
                                              point-specific exponents (IZeta= 3).
                        Self-potential: point-specific (ISelfS= 7).
                        Self-field    : sphere-specific E.n sum rule (ISelfD= 2).
 1st derivatives      : Analytical E(r).r(x)/FMM algorithm (CHGder, D1EAlg=3).
                        Cavity 1st derivative terms included.
 Solvent              : Acetone, Eps=  20.493000 Eps(inf)=   1.846337
 ------------------------------------------------------------------------------
 ------------------------------------------------------------------------------
 Atomic radii for non-electrostatic terms: SMD-CDS.
 ------------------------------------------------------------------------------
 Nuclear repulsion after PCM non-electrostatic terms =     1365.1793029726 Hartrees.
 One-electron integrals computed using PRISM.
 NBasis=   521 RedAO= T EigKep=  2.18D-06  NBF=   521
 NBsUse=   521 1.00D-06 EigRej= -1.00D+00 NBFU=   521
 ExpMin= 3.60D-02 ExpMax= 8.59D+03 ExpMxC= 1.30D+03 IAcc=3 IRadAn=         5 AccDes= 0.00D+00
 Harris functional with IExCor= 1009 and IRadAn=       5 diagonalized for initial guess.
 HarFok:  IExCor= 1009 AccDes= 0.00D+00 IRadAn=         5 IDoV= 1 UseB2=F ITyADJ=14
 ICtDFT=  3500011 ScaDFX=  1.000000  1.000000  1.000000  1.000000
 FoFCou: FMM=F IPFlag=           0 FMFlag=      100000 FMFlg1=           0
         NFxFlg=           0 DoJE=T BraDBF=F KetDBF=T FulRan=T
         wScrn=  0.000000 ICntrl=       500 IOpCl=  0 I1Cent=   200000004 NGrid=           0
         NMat0=    1 NMatS0=      1 NMatT0=    0 NMatD0=    1 NMtDS0=    0 NMtDT0=    0
 Petite list used in FoFCou.
 Requested convergence on RMS density matrix=1.00D-08 within 400 cycles.
 Requested convergence on MAX density matrix=1.00D-06.
 Requested convergence on             energy=1.00D-06.
 No special actions if energy rises.
 Inv3:  Mode=1 IEnd=    22407867.
 Iteration    1 A*A^-1 deviation from unit magnitude is 4.66D-15 for   2715.
 Iteration    1 A*A^-1 deviation from orthogonality  is 2.65D-15 for   2722   2626.
 Iteration    1 A^-1*A deviation from unit magnitude is 4.66D-15 for   2715.
 Iteration    1 A^-1*A deviation from orthogonality  is 1.42D-12 for    765    726.
 Error on total polarization charges =  0.02950
 SCF Done:  E(RM062X) =  -957.120734416     A.U. after   14 cycles
            NFock= 14  Conv=0.59D-08     -V/T= 2.0039
 SMD-CDS (non-electrostatic) energy       (kcal/mol) =      -4.57
 (included in total energy above)
 QCSCF skips out because SCF is already converged.

 **********************************************************************

            Population analysis using the SCF density.

 **********************************************************************

 Orbital symmetries:
       Occupied  (A) (A) (A) (A) (A) (A) (A) (A) (A) (A) (A) (A)
                 (A) (A) (A) (A) (A) (A) (A) (A) (A) (A) (A) (A)
                 (A) (A) (A) (A) (A) (A) (A) (A) (A) (A) (A) (A)
                 (A) (A) (A) (A) (A) (A) (A) (A) (A) (A) (A) (A)
                 (A) (A) (A) (A) (A) (A) (A) (A) (A) (A) (A) (A)
                 (A) (A) (A) (A) (A) (A) (A) (A) (A)
       Virtual   (A) (A) (A) (A) (A) (A) (A) (A) (A) (A) (A) (A)
                 (A) (A) (A) (A) (A) (A) (A) (A) (A) (A) (A) (A)
                 (A) (A) (A) (A) (A) (A) (A) (A) (A) (A) (A) (A)
                 (A) (A) (A) (A) (A) (A) (A) (A) (A) (A) (A) (A)
                 (A) (A) (A) (A) (A) (A) (A) (A) (A) (A) (A) (A)
                 (A) (A) (A) (A) (A) (A) (A) (A) (A) (A) (A) (A)
                 (A) (A) (A) (A) (A) (A) (A) (A) (A) (A) (A) (A)
                 (A) (A) (A) (A) (A) (A) (A) (A) (A) (A) (A) (A)
                 (A) (A) (A) (A) (A) (A) (A) (A) (A) (A) (A) (A)
                 (A) (A) (A) (A) (A) (A) (A) (A) (A) (A) (A) (A)
                 (A) (A) (A) (A) (A) (A) (A) (A) (A) (A) (A) (A)
                 (A) (A) (A) (A) (A) (A) (A) (A) (A) (A) (A) (A)
                 (A) (A) (A) (A) (A) (A) (A) (A) (A) (A) (A) (A)
                 (A) (A) (A) (A) (A) (A) (A) (A) (A) (A) (A) (A)
                 (A) (A) (A) (A) (A) (A) (A) (A) (A) (A) (A) (A)
                 (A) (A) (A) (A) (A) (A) (A) (A) (A) (A) (A) (A)
                 (A) (A) (A) (A) (A) (A) (A) (A) (A) (A) (A) (A)
                 (A) (A) (A) (A) (A) (A) (A) (A) (A) (A) (A) (A)
                 (A) (A) (A) (A) (A) (A) (A) (A) (A) (A) (A) (A)
                 (A) (A) (A) (A) (A) (A) (A) (A) (A) (A) (A) (A)
                 (A) (A) (A) (A) (A) (A) (A) (A) (A) (A) (A) (A)
                 (A) (A) (A) (A) (A) (A) (A) (A) (A) (A) (A) (A)
                 (A) (A) (A) (A) (A) (A) (A) (A) (A) (A) (A) (A)
                 (A) (A) (A) (A) (A) (A) (A) (A) (A) (A) (A) (A)
                 (A) (A) (A) (A) (A) (A) (A) (A) (A) (A) (A) (A)
                 (A) (A) (A) (A) (A) (A) (A) (A) (A) (A) (A) (A)
                 (A) (A) (A) (A) (A) (A) (A) (A) (A) (A) (A) (A)
                 (A) (A) (A) (A) (A) (A) (A) (A) (A) (A) (A) (A)
                 (A) (A) (A) (A) (A) (A) (A) (A) (A) (A) (A) (A)
                 (A) (A) (A) (A) (A) (A) (A) (A) (A) (A) (A) (A)
                 (A) (A) (A) (A) (A) (A) (A) (A) (A) (A) (A) (A)
                 (A) (A) (A) (A) (A) (A) (A) (A) (A) (A) (A) (A)
                 (A) (A) (A) (A) (A) (A) (A) (A) (A) (A) (A) (A)
                 (A) (A) (A) (A) (A) (A) (A) (A) (A) (A) (A) (A)
                 (A) (A) (A) (A) (A) (A) (A) (A) (A) (A) (A) (A)
                 (A) (A) (A) (A) (A) (A) (A) (A) (A) (A) (A) (A)
                 (A) (A) (A) (A) (A) (A) (A) (A) (A) (A) (A) (A)
                 (A) (A) (A) (A) (A) (A) (A) (A)
 The electronic state is 1-A.
 Alpha  occ. eigenvalues --  -19.78044 -19.65544 -19.65347 -19.65322 -19.64725
 Alpha  occ. eigenvalues --  -19.64453 -19.63783 -19.62676 -10.67394 -10.65934
 Alpha  occ. eigenvalues --  -10.61312 -10.60833 -10.60416 -10.60026 -10.59731
 Alpha  occ. eigenvalues --  -10.54165 -10.54015  -1.30929  -1.23003  -1.17801
 Alpha  occ. eigenvalues --   -1.17357  -1.16728  -1.15879  -1.13359  -1.10927
 Alpha  occ. eigenvalues --   -0.89928  -0.88747  -0.87475  -0.82076  -0.81774
 Alpha  occ. eigenvalues --   -0.77170  -0.75768  -0.73068  -0.71133  -0.67749
 Alpha  occ. eigenvalues --   -0.65022  -0.64330  -0.63307  -0.62653  -0.60739
 Alpha  occ. eigenvalues --   -0.60072  -0.57671  -0.56004  -0.55451  -0.53798
 Alpha  occ. eigenvalues --   -0.53700  -0.53302  -0.52744  -0.52384  -0.51313
 Alpha  occ. eigenvalues --   -0.50409  -0.49553  -0.48931  -0.48095  -0.47247
 Alpha  occ. eigenvalues --   -0.45669  -0.45041  -0.44873  -0.43928  -0.42987
 Alpha  occ. eigenvalues --   -0.42071  -0.41025  -0.40028  -0.39094  -0.38529
 Alpha  occ. eigenvalues --   -0.37442  -0.36206  -0.35598  -0.33519
 Alpha virt. eigenvalues --   -0.02772  -0.01646  -0.00253   0.00124   0.00691
 Alpha virt. eigenvalues --    0.00766   0.01712   0.02034   0.02348   0.02445
 Alpha virt. eigenvalues --    0.03112   0.03431   0.03562   0.04429   0.04870
 Alpha virt. eigenvalues --    0.05159   0.05439   0.05869   0.06414   0.06570
 Alpha virt. eigenvalues --    0.07319   0.07599   0.07941   0.08572   0.08778
 Alpha virt. eigenvalues --    0.09070   0.10084   0.10215   0.10610   0.11023
 Alpha virt. eigenvalues --    0.11100   0.11543   0.11909   0.12323   0.12483
 Alpha virt. eigenvalues --    0.12653   0.12997   0.13213   0.13351   0.13651
 Alpha virt. eigenvalues --    0.13927   0.14333   0.14895   0.15115   0.15195
 Alpha virt. eigenvalues --    0.15412   0.15513   0.15922   0.16287   0.16604
 Alpha virt. eigenvalues --    0.16872   0.17096   0.17392   0.17758   0.17967
 Alpha virt. eigenvalues --    0.19042   0.19326   0.19571   0.19641   0.20526
 Alpha virt. eigenvalues --    0.20923   0.21051   0.21363   0.21743   0.22167
 Alpha virt. eigenvalues --    0.22368   0.22402   0.22891   0.23283   0.23804
 Alpha virt. eigenvalues --    0.24446   0.24717   0.25309   0.25677   0.26067
 Alpha virt. eigenvalues --    0.26716   0.26986   0.27093   0.27581   0.27860
 Alpha virt. eigenvalues --    0.28432   0.28606   0.28990   0.29413   0.29799
 Alpha virt. eigenvalues --    0.30207   0.30410   0.30826   0.31509   0.31989
 Alpha virt. eigenvalues --    0.32281   0.32766   0.33452   0.33571   0.33897
 Alpha virt. eigenvalues --    0.34234   0.34383   0.34807   0.35020   0.35395
 Alpha virt. eigenvalues --    0.36089   0.36491   0.36647   0.37063   0.37334
 Alpha virt. eigenvalues --    0.37719   0.37984   0.38300   0.38664   0.39362
 Alpha virt. eigenvalues --    0.39742   0.39926   0.40436   0.40628   0.41078
 Alpha virt. eigenvalues --    0.41547   0.43135   0.43893   0.44732   0.46103
 Alpha virt. eigenvalues --    0.47093   0.48513   0.48964   0.49425   0.49719
 Alpha virt. eigenvalues --    0.50252   0.51462   0.51915   0.52555   0.53923
 Alpha virt. eigenvalues --    0.55545   0.56635   0.56866   0.58066   0.58472
 Alpha virt. eigenvalues --    0.59310   0.59739   0.60826   0.61348   0.62220
 Alpha virt. eigenvalues --    0.62484   0.63101   0.64267   0.64948   0.65745
 Alpha virt. eigenvalues --    0.66201   0.66418   0.68434   0.69176   0.69611
 Alpha virt. eigenvalues --    0.69840   0.70195   0.70688   0.71093   0.71586
 Alpha virt. eigenvalues --    0.72153   0.72653   0.73117   0.73621   0.74056
 Alpha virt. eigenvalues --    0.75805   0.76083   0.76900   0.78237   0.78998
 Alpha virt. eigenvalues --    0.79269   0.80620   0.81284   0.81482   0.82744
 Alpha virt. eigenvalues --    0.84154   0.84879   0.86753   0.87286   0.88879
 Alpha virt. eigenvalues --    0.92971   0.95642   0.97153   0.97960   0.98294
 Alpha virt. eigenvalues --    1.02423   1.03149   1.04566   1.05522   1.07059
 Alpha virt. eigenvalues --    1.08395   1.09609   1.10822   1.11071   1.12876
 Alpha virt. eigenvalues --    1.14640   1.17018   1.17892   1.18902   1.19955
 Alpha virt. eigenvalues --    1.20843   1.20865   1.21321   1.22711   1.23521
 Alpha virt. eigenvalues --    1.24214   1.24782   1.25538   1.26071   1.27438
 Alpha virt. eigenvalues --    1.27725   1.29140   1.31111   1.31542   1.32753
 Alpha virt. eigenvalues --    1.33352   1.33814   1.34864   1.37701   1.38446
 Alpha virt. eigenvalues --    1.38971   1.40364   1.41792   1.42941   1.43958
 Alpha virt. eigenvalues --    1.45527   1.46828   1.48292   1.49279   1.49378
 Alpha virt. eigenvalues --    1.50154   1.51198   1.51558   1.52701   1.53769
 Alpha virt. eigenvalues --    1.54852   1.55243   1.55939   1.57272   1.57495
 Alpha virt. eigenvalues --    1.57800   1.58440   1.60463   1.60721   1.62465
 Alpha virt. eigenvalues --    1.62762   1.63244   1.63854   1.65036   1.65633
 Alpha virt. eigenvalues --    1.65873   1.66253   1.66333   1.68112   1.69513
 Alpha virt. eigenvalues --    1.70185   1.70805   1.71275   1.73082   1.74317
 Alpha virt. eigenvalues --    1.74694   1.75617   1.77263   1.77755   1.78851
 Alpha virt. eigenvalues --    1.80113   1.80553   1.82397   1.82870   1.83422
 Alpha virt. eigenvalues --    1.84929   1.86166   1.86816   1.87967   1.88098
 Alpha virt. eigenvalues --    1.89163   1.91306   1.93064   1.93268   1.94195
 Alpha virt. eigenvalues --    1.96423   1.97178   1.98864   1.99675   2.00540
 Alpha virt. eigenvalues --    2.02727   2.04702   2.06021   2.07386   2.08767
 Alpha virt. eigenvalues --    2.09070   2.11450   2.12332   2.12710   2.13853
 Alpha virt. eigenvalues --    2.14079   2.16609   2.17088   2.19642   2.22177
 Alpha virt. eigenvalues --    2.23079   2.24010   2.24092   2.25853   2.26817
 Alpha virt. eigenvalues --    2.30273   2.32018   2.33408   2.33628   2.35555
 Alpha virt. eigenvalues --    2.35778   2.37819   2.39555   2.46278   2.48352
 Alpha virt. eigenvalues --    2.53001   2.53732   2.54583   2.54860   2.55566
 Alpha virt. eigenvalues --    2.56335   2.57526   2.57715   2.58922   2.60036
 Alpha virt. eigenvalues --    2.60316   2.61955   2.62438   2.63128   2.63823
 Alpha virt. eigenvalues --    2.66282   2.66956   2.67310   2.67898   2.68554
 Alpha virt. eigenvalues --    2.69708   2.73870   2.74914   2.75402   2.76614
 Alpha virt. eigenvalues --    2.79633   2.81718   2.83150   2.86796   2.87261
 Alpha virt. eigenvalues --    2.88979   2.90383   2.91203   2.92752   2.94327
 Alpha virt. eigenvalues --    2.95395   2.96447   2.97979   2.98934   2.99296
 Alpha virt. eigenvalues --    3.00528   3.04016   3.05981   3.06891   3.08685
 Alpha virt. eigenvalues --    3.09373   3.12291   3.13144   3.14815   3.16177
 Alpha virt. eigenvalues --    3.18104   3.19170   3.19915   3.21341   3.22034
 Alpha virt. eigenvalues --    3.23130   3.25424   3.26820   3.28073   3.28834
 Alpha virt. eigenvalues --    3.29223   3.31094   3.32240   3.33409   3.35460
 Alpha virt. eigenvalues --    3.35985   3.38122   3.40342   3.40620   3.42339
 Alpha virt. eigenvalues --    3.47825   3.54686   3.58009   3.60408   3.61948
 Alpha virt. eigenvalues --    3.77071   3.83138   3.85186   3.86338   3.88630
 Alpha virt. eigenvalues --    3.89219   3.90748   3.91031   3.92948   3.93294
 Alpha virt. eigenvalues --    3.93818   3.95187   3.96792   4.00224   4.02766
 Alpha virt. eigenvalues --    4.06460   4.07147   4.10133   4.15668   4.18713
 Alpha virt. eigenvalues --    4.21858   4.25742   4.27398   4.29885   4.34454
 Alpha virt. eigenvalues --    4.43200   5.14212   5.15413   5.17560   5.23034
 Alpha virt. eigenvalues --    5.24559   5.25529   5.25969   5.30982   5.32409
 Alpha virt. eigenvalues --    5.46287   5.50101   5.52884   5.55548   5.57265
 Alpha virt. eigenvalues --    5.59508   5.60735   5.64947   5.70746   5.73838
 Alpha virt. eigenvalues --    5.77870   5.79339   5.82059   5.83979   5.93008
 Alpha virt. eigenvalues --   23.71349  23.79278  23.87672  23.91595  23.93687
 Alpha virt. eigenvalues --   23.96003  23.99754  24.07957  24.09815  49.89212
 Alpha virt. eigenvalues --   49.98497  50.01210  50.02293  50.05117  50.08914
 Alpha virt. eigenvalues --   50.11389  50.13259
          Condensed to atoms (all electrons):
               1          2          3          4          5          6
     1  C   10.531853  -3.340989   2.068026  -3.009694   0.240834  -1.167203
     2  C   -3.340989  10.577920  -3.269418   2.484352  -0.113321   0.374615
     3  C    2.068026  -3.269418  12.384604  -4.716837   0.146852   0.126788
     4  C   -3.009694   2.484352  -4.716837  14.132928   0.049744   0.131123
     5  O    0.240834  -0.113321   0.146852   0.049744   8.148608  -0.065538
     6  C   -1.167203   0.374615   0.126788   0.131123  -0.065538   6.231691
     7  C    0.238828  -0.599277  -0.791053  -2.196738  -0.338589  -0.040323
     8  O   -0.020547  -0.089358   0.103093  -0.098882   0.022509   0.145021
     9  O   -0.180102   0.367445  -0.130941  -0.144207   0.014267   0.004586
    10  O    0.063690  -0.009544  -0.054439   0.069434  -0.066144  -0.003966
    11  O    0.046544  -0.196054   0.527835  -0.262357   0.003736  -0.016338
    12  O    0.015233  -0.036347   0.060651  -0.275134  -0.023129  -0.008680
    13  H   -0.010412  -0.045137   0.025048  -0.024216  -0.021995   0.427419
    14  H   -0.077303   0.037665  -0.013457  -0.013027   0.019215   0.456947
    15  H   -0.032499   0.003146   0.004452   0.008417   0.002062   0.038452
    16  H    0.494082  -0.154206   0.064165  -0.036056  -0.036710  -0.070030
    17  H    0.092231   0.234179   0.091525  -0.127414  -0.002975  -0.022362
    18  H   -0.086628   0.129025  -0.100664   0.093159  -0.001014   0.000131
    19  H   -0.011129  -0.008473   0.345290   0.036769   0.022538   0.014218
    20  H   -0.000734   0.062202  -0.082582   0.069458   0.006116  -0.014585
    21  H    0.016849  -0.037782   0.018009   0.027118  -0.010484  -0.012824
    22  H   -0.014188   0.002264  -0.024112  -0.066204   0.014690   0.004147
    23  H    0.042336  -0.026577  -0.038926  -0.064688  -0.023500  -0.017002
    24  H    0.002672   0.001783  -0.002537   0.004521   0.017185  -0.000651
    25  H   -0.054942   0.048215  -0.072621   0.014895  -0.002267   0.009488
    26  O    0.009403  -0.015891  -0.024979  -0.057796  -0.005973  -0.002542
    27  H   -0.002391  -0.001032  -0.001041  -0.011447  -0.002288   0.001119
    28  H    0.002210   0.000958   0.022393   0.059399  -0.000122  -0.001026
    29  O    0.000043  -0.000017   0.000106  -0.000699   0.000022  -0.000003
    30  C   -0.000244  -0.000282  -0.000607  -0.003031  -0.000045   0.000027
    31  C   -0.000177   0.000091  -0.000013  -0.000555  -0.000015   0.000006
    32  H    0.000006  -0.000010  -0.000017  -0.000077   0.000000  -0.000000
    33  H   -0.000003   0.000009  -0.000011   0.000011   0.000000  -0.000000
    34  H   -0.000000  -0.000000   0.000007   0.000023  -0.000000   0.000000
    35  C   -0.000146   0.000298  -0.000143  -0.001212   0.000059   0.000024
    36  H    0.000269  -0.000195  -0.000014   0.000317   0.000031  -0.000017
    37  H    0.000054  -0.000038  -0.000185  -0.001277   0.000024  -0.000006
    38  H   -0.000016  -0.000000   0.000045   0.000150  -0.000001   0.000003
               7          8          9         10         11         12
     1  C    0.238828  -0.020547  -0.180102   0.063690   0.046544   0.015233
     2  C   -0.599277  -0.089358   0.367445  -0.009544  -0.196054  -0.036347
     3  C   -0.791053   0.103093  -0.130941  -0.054439   0.527835   0.060651
     4  C   -2.196738  -0.098882  -0.144207   0.069434  -0.262357  -0.275134
     5  O   -0.338589   0.022509   0.014267  -0.066144   0.003736  -0.023129
     6  C   -0.040323   0.145021   0.004586  -0.003966  -0.016338  -0.008680
     7  C    9.445123   0.006012   0.049937  -0.211986  -0.031646   0.235879
     8  O    0.006012   8.249728   0.003608   0.001868  -0.014558  -0.000907
     9  O    0.049937   0.003608   8.070100   0.001439   0.026120   0.000250
    10  O   -0.211986   0.001868   0.001439   8.107050   0.018563   0.034168
    11  O   -0.031646  -0.014558   0.026120   0.018563   7.824724   0.001225
    12  O    0.235879  -0.000907   0.000250   0.034168   0.001225   8.149655
    13  H   -0.004162  -0.059545  -0.001547   0.001618   0.002187   0.000501
    14  H    0.003212  -0.072215  -0.001494  -0.001597  -0.000428  -0.000297
    15  H   -0.002176   0.222154  -0.000198   0.000075  -0.000690   0.000024
    16  H   -0.002443   0.010401  -0.005570   0.003978  -0.002361   0.000351
    17  H   -0.013879   0.009294  -0.000854   0.002012  -0.008051   0.000685
    18  H    0.012602   0.000448   0.272521  -0.004495   0.002193  -0.000218
    19  H   -0.136514   0.001882  -0.025013   0.018640  -0.054575  -0.002069
    20  H   -0.036753  -0.028463   0.000063  -0.001664   0.302237  -0.001453
    21  H    0.019851  -0.000081  -0.005675   0.280061  -0.001091   0.004560
    22  H    0.476819   0.000584   0.000828  -0.005742  -0.009539  -0.067728
    23  H    0.412764  -0.001169  -0.000272   0.010289   0.042618   0.001460
    24  H   -0.008811   0.000041  -0.000323  -0.003812  -0.002334   0.255369
    25  H   -0.011317   0.000352  -0.003606   0.084941  -0.002075   0.004756
    26  O    0.073546   0.000000   0.000658  -0.001850   0.000136  -0.023981
    27  H    0.028077   0.000037   0.000174  -0.003465  -0.000029   0.029493
    28  H   -0.051388  -0.000048  -0.000214  -0.008579   0.000153   0.000640
    29  O    0.001277   0.000000   0.000002   0.000042  -0.000000  -0.000370
    30  C    0.003250   0.000000  -0.000017   0.000062  -0.000002   0.000737
    31  C    0.000945   0.000000  -0.000002  -0.000152  -0.000000   0.000005
    32  H    0.000065  -0.000000   0.000000   0.000011   0.000000   0.000005
    33  H   -0.000033  -0.000000  -0.000000   0.000001   0.000000   0.000005
    34  H   -0.000003   0.000000   0.000000  -0.000000  -0.000000  -0.000003
    35  C    0.000864  -0.000000   0.000029  -0.000529   0.000002  -0.000435
    36  H    0.000322  -0.000000  -0.000011  -0.000039   0.000000  -0.000042
    37  H    0.000259   0.000000   0.000000   0.000267  -0.000001  -0.000284
    38  H    0.000068  -0.000000   0.000001  -0.000091   0.000000  -0.000017
              13         14         15         16         17         18
     1  C   -0.010412  -0.077303  -0.032499   0.494082   0.092231  -0.086628
     2  C   -0.045137   0.037665   0.003146  -0.154206   0.234179   0.129025
     3  C    0.025048  -0.013457   0.004452   0.064165   0.091525  -0.100664
     4  C   -0.024216  -0.013027   0.008417  -0.036056  -0.127414   0.093159
     5  O   -0.021995   0.019215   0.002062  -0.036710  -0.002975  -0.001014
     6  C    0.427419   0.456947   0.038452  -0.070030  -0.022362   0.000131
     7  C   -0.004162   0.003212  -0.002176  -0.002443  -0.013879   0.012602
     8  O   -0.059545  -0.072215   0.222154   0.010401   0.009294   0.000448
     9  O   -0.001547  -0.001494  -0.000198  -0.005570  -0.000854   0.272521
    10  O    0.001618  -0.001597   0.000075   0.003978   0.002012  -0.004495
    11  O    0.002187  -0.000428  -0.000690  -0.002361  -0.008051   0.002193
    12  O    0.000501  -0.000297   0.000024   0.000351   0.000685  -0.000218
    13  H    0.548909  -0.062171  -0.001383   0.001663   0.007601  -0.001141
    14  H   -0.062171   0.534425  -0.005188  -0.010867  -0.014618   0.001409
    15  H   -0.001383  -0.005188   0.397599  -0.000530  -0.002259  -0.000164
    16  H    0.001663  -0.010867  -0.000530   0.420664   0.011357  -0.002217
    17  H    0.007601  -0.014618  -0.002259   0.011357   0.437601  -0.026410
    18  H   -0.001141   0.001409  -0.000164  -0.002217  -0.026410   0.398491
    19  H    0.001081  -0.000855   0.000484   0.002803  -0.001336  -0.005569
    20  H   -0.004857   0.002571   0.006536  -0.000190  -0.010405   0.001880
    21  H   -0.000242  -0.000198   0.000015   0.007614   0.005079  -0.008330
    22  H    0.000133   0.000127   0.000064  -0.000873  -0.001038   0.000584
    23  H    0.000825  -0.001084  -0.000969   0.001144   0.002872  -0.000646
    24  H   -0.000925   0.000173   0.000145   0.000184  -0.000070   0.000029
    25  H   -0.000411   0.000896   0.000028  -0.001168   0.000390  -0.000328
    26  O    0.000309  -0.000115  -0.000006   0.000837  -0.000218   0.000028
    27  H   -0.000065   0.000113  -0.000012  -0.000010  -0.000049   0.000030
    28  H    0.000033  -0.000160   0.000011  -0.000389   0.000027   0.000042
    29  O    0.000000   0.000000   0.000000   0.000016   0.000001  -0.000003
    30  C    0.000004  -0.000000   0.000000  -0.000004  -0.000008   0.000007
    31  C    0.000001  -0.000000   0.000000  -0.000030  -0.000001   0.000005
    32  H   -0.000000   0.000000  -0.000000   0.000001  -0.000000   0.000000
    33  H   -0.000000  -0.000000  -0.000000  -0.000000   0.000000   0.000000
    34  H    0.000000  -0.000000   0.000000  -0.000000   0.000000  -0.000000
    35  C    0.000001   0.000003  -0.000000   0.000015   0.000011  -0.000001
    36  H   -0.000002   0.000000  -0.000000  -0.000078  -0.000010   0.000010
    37  H   -0.000002   0.000001   0.000000   0.000040  -0.000000  -0.000003
    38  H    0.000000  -0.000000  -0.000000  -0.000001   0.000000   0.000001
              19         20         21         22         23         24
     1  C   -0.011129  -0.000734   0.016849  -0.014188   0.042336   0.002672
     2  C   -0.008473   0.062202  -0.037782   0.002264  -0.026577   0.001783
     3  C    0.345290  -0.082582   0.018009  -0.024112  -0.038926  -0.002537
     4  C    0.036769   0.069458   0.027118  -0.066204  -0.064688   0.004521
     5  O    0.022538   0.006116  -0.010484   0.014690  -0.023500   0.017185
     6  C    0.014218  -0.014585  -0.012824   0.004147  -0.017002  -0.000651
     7  C   -0.136514  -0.036753   0.019851   0.476819   0.412764  -0.008811
     8  O    0.001882  -0.028463  -0.000081   0.000584  -0.001169   0.000041
     9  O   -0.025013   0.000063  -0.005675   0.000828  -0.000272  -0.000323
    10  O    0.018640  -0.001664   0.280061  -0.005742   0.010289  -0.003812
    11  O   -0.054575   0.302237  -0.001091  -0.009539   0.042618  -0.002334
    12  O   -0.002069  -0.001453   0.004560  -0.067728   0.001460   0.255369
    13  H    0.001081  -0.004857  -0.000242   0.000133   0.000825  -0.000925
    14  H   -0.000855   0.002571  -0.000198   0.000127  -0.001084   0.000173
    15  H    0.000484   0.006536   0.000015   0.000064  -0.000969   0.000145
    16  H    0.002803  -0.000190   0.007614  -0.000873   0.001144   0.000184
    17  H   -0.001336  -0.010405   0.005079  -0.001038   0.002872  -0.000070
    18  H   -0.005569   0.001880  -0.008330   0.000584  -0.000646   0.000029
    19  H    0.470418   0.014116   0.002761   0.001509  -0.002453   0.000437
    20  H    0.014116   0.390004  -0.001421   0.000482  -0.006531   0.000556
    21  H    0.002761  -0.001421   0.362874  -0.002762   0.002419  -0.000576
    22  H    0.001509   0.000482  -0.002762   0.419681  -0.017038   0.011624
    23  H   -0.002453  -0.006531   0.002419  -0.017038   0.456656  -0.019953
    24  H    0.000437   0.000556  -0.000576   0.011624  -0.019953   0.414896
    25  H    0.006467  -0.000049  -0.013463   0.002595   0.001100  -0.001239
    26  O   -0.000337   0.000219   0.000715   0.005291  -0.001377   0.000790
    27  H   -0.000244  -0.000155   0.000628  -0.001299   0.000348  -0.007956
    28  H   -0.000801   0.000084  -0.000131  -0.002866  -0.000496   0.002484
    29  O    0.000020  -0.000000   0.000105  -0.000279   0.000005   0.000151
    30  C   -0.000023  -0.000005  -0.000049   0.000614  -0.000020   0.000132
    31  C    0.000023  -0.000002  -0.000472  -0.000103   0.000028  -0.000003
    32  H   -0.000002   0.000000   0.000012   0.000007  -0.000000   0.000002
    33  H   -0.000001   0.000000  -0.000028  -0.000003  -0.000000   0.000005
    34  H    0.000001  -0.000000   0.000009  -0.000006   0.000001  -0.000001
    35  C    0.000012  -0.000001  -0.000194  -0.000536   0.000139  -0.000699
    36  H   -0.000022   0.000003   0.000174   0.000120  -0.000041   0.000066
    37  H    0.000006  -0.000000   0.000035   0.000107  -0.000022   0.000157
    38  H   -0.000000  -0.000000  -0.000018  -0.000028   0.000007  -0.000044
              25         26         27         28         29         30
     1  C   -0.054942   0.009403  -0.002391   0.002210   0.000043  -0.000244
     2  C    0.048215  -0.015891  -0.001032   0.000958  -0.000017  -0.000282
     3  C   -0.072621  -0.024979  -0.001041   0.022393   0.000106  -0.000607
     4  C    0.014895  -0.057796  -0.011447   0.059399  -0.000699  -0.003031
     5  O   -0.002267  -0.005973  -0.002288  -0.000122   0.000022  -0.000045
     6  C    0.009488  -0.002542   0.001119  -0.001026  -0.000003   0.000027
     7  C   -0.011317   0.073546   0.028077  -0.051388   0.001277   0.003250
     8  O    0.000352   0.000000   0.000037  -0.000048   0.000000   0.000000
     9  O   -0.003606   0.000658   0.000174  -0.000214   0.000002  -0.000017
    10  O    0.084941  -0.001850  -0.003465  -0.008579   0.000042   0.000062
    11  O   -0.002075   0.000136  -0.000029   0.000153  -0.000000  -0.000002
    12  O    0.004756  -0.023981   0.029493   0.000640  -0.000370   0.000737
    13  H   -0.000411   0.000309  -0.000065   0.000033   0.000000   0.000004
    14  H    0.000896  -0.000115   0.000113  -0.000160   0.000000  -0.000000
    15  H    0.000028  -0.000006  -0.000012   0.000011   0.000000   0.000000
    16  H   -0.001168   0.000837  -0.000010  -0.000389   0.000016  -0.000004
    17  H    0.000390  -0.000218  -0.000049   0.000027   0.000001  -0.000008
    18  H   -0.000328   0.000028   0.000030   0.000042  -0.000003   0.000007
    19  H    0.006467  -0.000337  -0.000244  -0.000801   0.000020  -0.000023
    20  H   -0.000049   0.000219  -0.000155   0.000084  -0.000000  -0.000005
    21  H   -0.013463   0.000715   0.000628  -0.000131   0.000105  -0.000049
    22  H    0.002595   0.005291  -0.001299  -0.002866  -0.000279   0.000614
    23  H    0.001100  -0.001377   0.000348  -0.000496   0.000005  -0.000020
    24  H   -0.001239   0.000790  -0.007956   0.002484   0.000151   0.000132
    25  H    0.421390   0.168506   0.004586  -0.049319  -0.012486   0.003776
    26  O    0.168506   7.743323   0.293086   0.144313  -0.039580  -0.006261
    27  H    0.004586   0.293086   0.313378  -0.041337  -0.006900   0.000063
    28  H   -0.049319   0.144313  -0.041337   0.512539   0.154013  -0.025099
    29  O   -0.012486  -0.039580  -0.006900   0.154013   8.155926   0.448173
    30  C    0.003776  -0.006261   0.000063  -0.025099   0.448173   5.436094
    31  C    0.013183  -0.021079  -0.001110   0.007037  -0.131718  -0.193078
    32  H   -0.000239   0.000489   0.000029  -0.001138  -0.000094  -0.059383
    33  H    0.000065   0.000370  -0.000245   0.001772   0.003621  -0.008235
    34  H   -0.000197  -0.000361   0.000001   0.001327   0.000149   0.007274
    35  C    0.010543   0.033146   0.011280  -0.068511  -0.151775  -0.031998
    36  H   -0.008879  -0.001845   0.001350   0.001596  -0.008060   0.017739
    37  H    0.002329   0.002662  -0.002691  -0.008118  -0.006167  -0.053327
    38  H    0.000571   0.000511   0.000616  -0.001836   0.005487  -0.062648
              31         32         33         34         35         36
     1  C   -0.000177   0.000006  -0.000003  -0.000000  -0.000146   0.000269
     2  C    0.000091  -0.000010   0.000009  -0.000000   0.000298  -0.000195
     3  C   -0.000013  -0.000017  -0.000011   0.000007  -0.000143  -0.000014
     4  C   -0.000555  -0.000077   0.000011   0.000023  -0.001212   0.000317
     5  O   -0.000015   0.000000   0.000000  -0.000000   0.000059   0.000031
     6  C    0.000006  -0.000000  -0.000000   0.000000   0.000024  -0.000017
     7  C    0.000945   0.000065  -0.000033  -0.000003   0.000864   0.000322
     8  O    0.000000  -0.000000  -0.000000   0.000000  -0.000000  -0.000000
     9  O   -0.000002   0.000000  -0.000000   0.000000   0.000029  -0.000011
    10  O   -0.000152   0.000011   0.000001  -0.000000  -0.000529  -0.000039
    11  O   -0.000000   0.000000   0.000000  -0.000000   0.000002   0.000000
    12  O    0.000005   0.000005   0.000005  -0.000003  -0.000435  -0.000042
    13  H    0.000001  -0.000000  -0.000000   0.000000   0.000001  -0.000002
    14  H   -0.000000   0.000000  -0.000000  -0.000000   0.000003   0.000000
    15  H    0.000000  -0.000000  -0.000000   0.000000  -0.000000  -0.000000
    16  H   -0.000030   0.000001  -0.000000  -0.000000   0.000015  -0.000078
    17  H   -0.000001  -0.000000   0.000000   0.000000   0.000011  -0.000010
    18  H    0.000005   0.000000   0.000000  -0.000000  -0.000001   0.000010
    19  H    0.000023  -0.000002  -0.000001   0.000001   0.000012  -0.000022
    20  H   -0.000002   0.000000   0.000000  -0.000000  -0.000001   0.000003
    21  H   -0.000472   0.000012  -0.000028   0.000009  -0.000194   0.000174
    22  H   -0.000103   0.000007  -0.000003  -0.000006  -0.000536   0.000120
    23  H    0.000028  -0.000000  -0.000000   0.000001   0.000139  -0.000041
    24  H   -0.000003   0.000002   0.000005  -0.000001  -0.000699   0.000066
    25  H    0.013183  -0.000239   0.000065  -0.000197   0.010543  -0.008879
    26  O   -0.021079   0.000489   0.000370  -0.000361   0.033146  -0.001845
    27  H   -0.001110   0.000029  -0.000245   0.000001   0.011280   0.001350
    28  H    0.007037  -0.001138   0.001772   0.001327  -0.068511   0.001596
    29  O   -0.131718  -0.000094   0.003621   0.000149  -0.151775  -0.008060
    30  C   -0.193078  -0.059383  -0.008235   0.007274  -0.031998   0.017739
    31  C    6.230728   0.430669   0.369066   0.368793  -0.275943  -0.024718
    32  H    0.430669   0.502600  -0.031906  -0.024147  -0.010682   0.000109
    33  H    0.369066  -0.031906   0.488855  -0.039477   0.003233  -0.003180
    34  H    0.368793  -0.024147  -0.039477   0.473006  -0.009379   0.000526
    35  C   -0.275943  -0.010682   0.003233  -0.009379   5.865500   0.380256
    36  H   -0.024718   0.000109  -0.003180   0.000526   0.380256   0.476070
    37  H   -0.016528  -0.001465   0.001834  -0.002106   0.441297  -0.043727
    38  H    0.018133  -0.000238  -0.002585  -0.000075   0.389229  -0.023646
              37         38
     1  C    0.000054  -0.000016
     2  C   -0.000038  -0.000000
     3  C   -0.000185   0.000045
     4  C   -0.001277   0.000150
     5  O    0.000024  -0.000001
     6  C   -0.000006   0.000003
     7  C    0.000259   0.000068
     8  O    0.000000  -0.000000
     9  O    0.000000   0.000001
    10  O    0.000267  -0.000091
    11  O   -0.000001   0.000000
    12  O   -0.000284  -0.000017
    13  H   -0.000002   0.000000
    14  H    0.000001  -0.000000
    15  H    0.000000  -0.000000
    16  H    0.000040  -0.000001
    17  H   -0.000000   0.000000
    18  H   -0.000003   0.000001
    19  H    0.000006  -0.000000
    20  H   -0.000000  -0.000000
    21  H    0.000035  -0.000018
    22  H    0.000107  -0.000028
    23  H   -0.000022   0.000007
    24  H    0.000157  -0.000044
    25  H    0.002329   0.000571
    26  O    0.002662   0.000511
    27  H   -0.002691   0.000616
    28  H   -0.008118  -0.001836
    29  O   -0.006167   0.005487
    30  C   -0.053327  -0.062648
    31  C   -0.016528   0.018133
    32  H   -0.001465  -0.000238
    33  H    0.001834  -0.002585
    34  H   -0.002106  -0.000075
    35  C    0.441297   0.389229
    36  H   -0.043727  -0.023646
    37  H    0.489747  -0.031109
    38  H   -0.031109   0.498724
 Mulliken charges:
               1
     1  C    0.144185
     2  C   -0.380220
     3  C   -0.664293
     4  C   -0.070271
     5  O    0.005620
     6  C   -0.522709
     7  C   -0.532606
     8  O   -0.391258
     9  O   -0.311981
    10  O   -0.320116
    11  O   -0.196143
    12  O   -0.354557
    13  H    0.220879
    14  H    0.218318
    15  H    0.362411
    16  H    0.304415
    17  H    0.337092
    18  H    0.325234
    19  H    0.309940
    20  H    0.333325
    21  H    0.346934
    22  H    0.272076
    23  H    0.247752
    24  H    0.336532
    25  H    0.435535
    26  O   -0.274147
    27  H    0.399358
    28  H    0.350548
    29  O   -0.411008
    30  C    0.526413
    31  C   -0.773014
    32  H    0.195393
    33  H    0.216863
    34  H    0.224640
    35  C   -0.583755
    36  H    0.235567
    37  H    0.228237
    38  H    0.208808
 Sum of Mulliken charges =   1.00000
 Mulliken charges with hydrogens summed into heavy atoms:
               1
     1  C    0.448601
     2  C   -0.043128
     3  C   -0.354352
     4  C   -0.070271
     5  O    0.005620
     6  C   -0.083512
     7  C   -0.012779
     8  O   -0.028846
     9  O    0.013253
    10  O    0.026818
    11  O    0.137182
    12  O   -0.018025
    26  O    0.911295
    29  O   -0.411008
    30  C    0.526413
    31  C   -0.136119
    35  C    0.088857
 Electronic spatial extent (au):  <R**2>=           8024.7314
 Charge=              1.0000 electrons
 Dipole moment (field-independent basis, Debye):
    X=              4.4794    Y=              3.5044    Z=              5.4424  Tot=              7.8718
 Quadrupole moment (field-independent basis, Debye-Ang):
   XX=              3.1628   YY=            -88.9870   ZZ=            -91.6773
   XY=              4.1066   XZ=             -0.7888   YZ=             -9.6288
 Traceless Quadrupole moment (field-independent basis, Debye-Ang):
   XX=             62.3300   YY=            -29.8198   ZZ=            -32.5102
   XY=              4.1066   XZ=             -0.7888   YZ=             -9.6288
 Octapole moment (field-independent basis, Debye-Ang**2):
  XXX=            319.3694  YYY=              9.5958  ZZZ=             19.9136  XYY=            -26.5229
  XXY=            106.3675  XXZ=            138.3938  XZZ=            -19.5584  YZZ=              8.7584
  YYZ=             -3.3884  XYZ=             15.4646
 Hexadecapole moment (field-independent basis, Debye-Ang**3):
 XXXX=          -4138.8074 YYYY=           -820.4390 ZZZZ=           -710.5192 XXXY=            487.7097
 XXXZ=           -146.2588 YYYX=            -21.9585 YYYZ=            -90.4026 ZZZX=            -57.5186
 ZZZY=            -43.2928 XXYY=          -1430.8702 XXZZ=          -1377.8678 YYZZ=           -220.1575
 XXYZ=           -119.9715 YYXZ=             35.9845 ZZXY=            -36.0386
 N-N= 1.365179302973D+03 E-N=-4.959173114001D+03  KE= 9.533851296658D+02
 D1PCM: PCM CHGder 1st derivatives, ID1Alg=3 FixD1E=F DoIter=F DoCFld=F I1PDM=0.
 Calling FoFJK, ICntrl=      2127 FMM=F ISym2X=0 I1Cent= 0 IOpClX= 0 NMat=1 NMatS=1 NMatT=0.
 ***** Axes restored to original set *****
[...]
 -0.00000312,0.00000011,-0.00000294,-0.00000149,-0.00000554,-0.00000889
 ,0.00005071,0.00009344,0.00009621,-0.00085317,-0.00002766,0.00030616,0
 .00008291,-0.00015735,0.00001804,0.00134983,0.00064450,-0.00072906,-0.
 00235054,0.00429954,0.00151458,-0.02053006,-0.02562823,0.00153092,-0.1
 3945680,-0.13488367,0.01594939,-0.00323203,-0.00280293,0.00081549,0.01
 050201,0.01249973,-0.00155264,0.15331260,-0.00000815,-0.00000199,0.000
 00082,-0.00000069,0.00000032,0.00000126,-0.00000265,-0.00000167,-0.000
 00637,-0.00001438,0.00002748,-0.00000089,0.00001421,-0.00000527,-0.000
 00438,0.00000008,0.00000157,-0.00000026,-0.00001145,-0.00000589,-0.000
 01994,0.00000125,-0.00000176,0.00000019,0.00000622,0.00000332,0.000001
 57,0.00004841,-0.00000052,0.00002787,0.00000510,-0.00000333,0.00000495
 ,0.00003608,-0.00005965,0.00003044,0.00000003,-0.00000009,0.00000006,0
 .00000055,-0.00000053,0.00000012,-0.00000011,0.00000044,-0.00000019,0.
 00000066,0.00000050,-0.00000007,0.00000094,0.00000021,-0.00000020,-0.0
 0000014,-0.00000135,-0.00000072,0.00000026,-0.00000004,-0.00000018,-0.
 00000161,0.00000127,0.00000022,-0.00000183,-0.00001203,0.00000338,-0.0
 0000035,0.00000204,-0.00000228,0.00000303,0.00000024,0.00000281,0.0000
 0054,0.00000559,0.00001012,-0.00007693,-0.00006972,-0.00006451,0.00058
 399,-0.00004260,-0.00020631,-0.00007744,0.00016027,-0.00002255,-0.0010
 9319,-0.00024934,0.00059507,0.00333938,-0.00257993,0.00107968,0.002762
 75,0.00964467,0.00048062,-0.12956775,-0.20968423,0.01331864,-0.0045946
 2,-0.00728841,0.00193126,-0.01394737,-0.01662268,0.00155613,0.14295422
 ,0.22755397,-0.00000876,-0.00000207,0.00000122,-0.00000116,-0.00000028
 ,0.00000156,-0.00000291,-0.00000154,-0.00000558,-0.00001572,0.00002093
 ,0.00000188,0.00001569,-0.00000380,-0.00000621,-0.00000009,0.00000106,
 0.00000070,-0.00001087,-0.00000394,-0.00001357,0.00000210,-0.00000124,
 -0.00000107,0.00000649,0.00000316,0.00000030,0.00004090,-0.00000154,0.
 00001733,0.00000589,-0.00000241,0.00000350,0.00003144,-0.00004574,0.00
 001992,-0.00000006,-0.00000033,-0.00000019,0.00000080,-0.00000040,0.00
 000006,-0.00000043,0.00000036,-0.00000004,0.00000077,0.00000070,-0.000
 00030,0.00000104,0.00000025,-0.00000012,-0.00000096,-0.00000127,-0.000
 00025,0.00000009,-0.00000026,-0.00000006,-0.00000279,0.00000146,0.0000
 0082,-0.00000323,-0.00000899,0.00000414,-0.00000129,0.00000093,-0.0000
 0150,0.00000184,0.00000011,0.00000260,-0.00000063,0.00000483,0.0000099
 0,-0.00006400,-0.00005506,-0.00004648,0.00043617,-0.00006161,-0.000145
 50,-0.00005661,0.00012163,-0.00001638,-0.00078887,-0.00006398,0.000419
 10,0.00172232,-0.00104786,0.00057950,0.00434562,0.01517465,-0.00220026
 ,0.01786294,0.01480842,-0.04463926,-0.01753474,-0.02175895,0.00498965,
 0.01086275,0.01290870,-0.00216204,-0.01671354,-0.01769547,0.04432477,0
 .00001604,0.00000292,-0.00000058,0.00000333,-0.00000366,-0.00000176,0.
 00000555,-0.00000164,0.00001136,0.00003579,-0.00005219,-0.00000110,-0.
 00003584,0.00001477,0.00001448,0.00000009,-0.00000374,-0.00000123,0.00
 002369,0.00000154,0.00001218,-0.00000409,0.00000523,0.00000160,-0.0000
 1567,-0.00000060,-0.00000089,-0.00006661,0.00001919,-0.00002082,-0.000
 01406,0.00000970,-0.00001009,-0.00005086,0.00010484,-0.00003475,-0.000
 00006,0.00000104,0.00000029,-0.00000145,0.00000119,-0.00000027,0.00000
 014,-0.00000152,0.00000022,-0.00000165,-0.00000186,-0.00000004,-0.0000
 0214,0.00000010,0.00000020,0.00000403,0.00000112,0.00000055,0.00000113
 ,0.00000103,0.00000127,0.00000705,-0.00000439,-0.00000128,0.00001214,0
 .00001403,-0.00000582,0.00000423,-0.00000679,0.00000669,-0.00000633,0.
 00000165,-0.00000081,-0.00000430,-0.00001410,-0.00002225,0.00032238,0.
 00006685,-0.00001607,-0.00112889,0.00070878,0.00092743,0.00001828,-0.0
 0032003,0.00005005,0.00328227,-0.00264465,-0.00265609,-0.00899618,0.00
 267931,-0.05129585,-0.09298668,0.00232693,0.02041182,0.00697900,0.0088
 8657,0.02540397,-0.00469472,0.00108154,0.00313403,0.00046397,-0.000272
 13,0.00046889,0.00047161,-0.00122852,-0.00070981,0.60944644,0.00000493
 ,0.00000042,0.00000175,0.00000113,-0.00000194,0.00000065,0.00000086,0.
 00000404,0.00000558,0.00001098,-0.00003110,0.00000409,-0.00000494,0.00
 000856,0.00000076,0.00000010,-0.00000231,0.00000082,0.00000981,0.00001
 102,0.00001940,-0.00000041,0.00000328,-0.00000161,-0.00000485,-0.00000
 075,-0.00000382,-0.00004857,0.00000101,-0.00002658,-0.00000402,0.00000
 263,-0.00000554,-0.00004917,0.00011039,-0.00005272,0.00000023,-0.00000
 039,0.00000011,-0.00000013,0.00000021,-0.00000017,-0.00000048,-0.00000
 085,-0.00000010,0.00000043,-0.00000015,-0.00000046,-0.00000026,-0.0000
 0015,-0.00000059,-0.00000086,0.00000069,0.00000115,-0.00000056,0.00000
 076,-0.00000111,0.00000088,-0.00000066,0.00000029,-0.00000117,0.000008
 29,-0.00000198,-0.00000138,-0.00000092,0.00000033,-0.00000457,-0.00000
 203,-0.00000397,-0.00000155,-0.00000768,-0.00000720,0.00006666,0.00006
 145,-0.00011138,0.00025848,0.00052124,-0.00083563,-0.00011579,-0.00022
 483,0.00008571,-0.00218283,-0.00266218,0.00266712,0.00900295,0.0274065
 4,0.00129172,0.00034066,-0.10023324,-0.04370840,0.00081307,0.01279196,
 -0.01342160,0.00128557,0.00139644,-0.00152042,-0.00186227,0.00073572,0
 .00173001,0.00273915,-0.00082065,-0.00140091,-0.02426130,0.54027318,0.
 00006974,0.00001725,-0.00001126,0.00000817,-0.00000354,-0.00001193,0.0
 0002365,0.00001336,0.00004718,0.00012591,-0.00021547,-0.00001098,-0.00
 012679,0.00004427,0.00005546,-0.00000064,-0.00000881,-0.00000488,0.000
 08089,0.00005494,0.00014346,-0.00001416,0.00001062,0.00000803,-0.00005
 807,-0.00002139,-0.00000315,-0.00040198,0.00002017,-0.00017103,-0.0000
 4979,0.00002629,-0.00003453,-0.00029930,0.00045753,-0.00022524,0.00000
 008,0.00000303,0.00000092,-0.00000599,0.00000365,-0.00000071,0.0000019
 3,-0.00000312,0.00000039,-0.00000689,-0.00000593,0.00000163,-0.0000081
 1,-0.00000167,0.00000098,0.00000761,0.00000824,0.00000207,-0.00000009,
 0.00000190,0.00000110,0.00002040,-0.00001157,-0.00000644,0.00002278,0.
 00007981,-0.00004774,0.00000009,-0.00001603,0.00001319,-0.00001998,-0.
 00000301,-0.00002278,0.00000654,-0.00004143,-0.00008455,0.00053967,0.0
 0057152,0.00026161,-0.00378536,0.00091497,0.00033713,0.00034647,-0.001
 09182,0.00028933,0.00567723,-0.00077356,-0.00129670,-0.02774881,-0.004
 83504,-0.02990778,0.01200055,-0.03255216,-0.20963009,0.00413027,-0.005
 43293,-0.01266489,0.00132617,-0.00069816,0.00048960,0.00004630,-0.0001
 4888,-0.00118322,-0.00097904,-0.00079218,-0.00084836,-0.01496085,0.019
 69216,0.49122394,0.00000171,0.00000133,-0.00000226,-0.00000108,0.00000
 354,-0.00000141,-0.00000099,0.00000222,0.00000047,0.00000031,0.0000018
 8,-0.00000449,-0.00000272,-0.00000226,0.00000211,-0.00000077,0.0000010
 8,-0.00000103,0.00000380,0.00000408,0.00000939,0.00000042,-0.00000234,
 0.00000166,0.00000047,-0.00000521,0.00000111,-0.00001531,-0.00001176,0
 .00000292,-0.00000048,-0.00000256,0.00000073,-0.00001061,0.00000605,-0
 .00000998,-0.00000002,0.00000023,0.00000004,-0.00000025,0.00000019,0.0
 0000003,-0.00000012,0.00000053,0.,-0.00000123,-0.00000002,0.00000058,0
 .00000005,-0.00000048,0.00000045,-0.00000135,0.00000062,-0.00000034,-0
 .00000020,0.00000030,-0.00000037,0.00000015,0.00000086,-0.00000020,-0.
 00000442,0.00000749,-0.00000649,-0.00000093,0.00000038,-0.00000024,-0.
 00000090,-0.00000062,-0.00000156,0.00000187,0.00000052,-0.00000377,0.0
 0002611,0.00004079,-0.00001982,0.00000253,-0.00008235,-0.00001671,0.00
 004273,-0.00001749,0.00003125,0.00010899,0.00030715,0.00015200,0.00039
 213,-0.00221464,-0.00082018,-0.00386440,0.00212099,-0.00487137,-0.0010
 5753,0.00002026,0.00038813,-0.00004052,0.00020778,-0.00008590,-0.00002
 553,0.00006035,0.00049913,0.00026494,0.00027536,0.00040499,-0.03830379
 ,0.01528888,-0.00246962,0.04129797,0.00000524,0.00000099,-0.00000027,0
 .00000083,-0.00000074,-0.00000079,0.00000233,0.00000033,0.00000397,0.0
 0001140,-0.00002028,0.00000109,-0.00000949,0.00000442,0.00000374,0.000
 00002,-0.00000157,0.00000056,0.00000624,0.00000158,0.00000889,-0.00000
 117,0.00000189,-0.00000032,-0.00000468,-0.00000098,-0.00000061,-0.0000
 2888,0.00000403,-0.00001508,-0.00000364,0.00000326,-0.00000327,-0.0000
 2069,0.00004414,-0.00001804,-0.00000014,0.00000005,-0.00000011,-0.0000
 0018,0.00000041,-0.00000015,0.00000011,-0.00000046,0.00000015,-0.00000
 039,-0.00000018,-0.00000025,-0.00000058,0.00000006,0.00000004,0.000000
 69,0.00000068,0.00000030,-0.00000024,0.00000009,0.00000032,0.00000132,
 -0.00000130,-0.00000028,0.00000214,0.00000616,-0.00000275,-0.00000004,
 -0.00000090,0.00000119,-0.00000160,0.00000015,-0.00000136,-0.00000192,
 -0.00000463,-0.00000680,0.00004738,0.00003117,0.00004668,-0.00045572,0
 .00013704,0.00018323,0.00001442,-0.00010603,0.00001523,0.00089004,-0.0
 0017047,-0.00051913,-0.00360772,-0.00151989,-0.00154644,0.00114775,0.0
 0676280,0.00186906,0.00144040,-0.00090299,0.00048325,-0.00000097,-0.00
 005614,0.00007519,0.00002063,0.00016174,-0.00085179,-0.00024737,0.0000
 2705,-0.00028499,0.01414514,-0.25044842,0.11044581,-0.01400817,0.27088
 109,0.00000685,0.00000181,-0.00000066,0.00000086,0.00000053,-0.0000009
 6,0.00000190,0.00000129,0.00000496,0.00001145,-0.00001980,0.00000073,-
 0.00001228,0.00000329,0.00000252,0.00000008,-0.00000129,0.00000019,0.0
 0000837,0.00000442,0.00001515,-0.00000124,0.00000125,-0.00000041,-0.00
 000495,-0.00000361,-0.00000143,-0.00003983,-0.00000168,-0.00001818,-0.
 00000409,0.00000201,-0.00000354,-0.00002944,0.00004810,-0.00002322,0.0
 0000001,0.00000016,0.00000021,-0.00000065,0.00000039,-0.00000006,0.000
 00019,-0.00000032,0.00000031,-0.00000089,-0.00000043,0.00000030,-0.000
 00090,-0.00000029,0.00000024,0.,0.00000136,0.00000054,-0.00000036,-0.0
 0000011,0.00000005,0.00000134,-0.00000078,-0.00000011,0.00000133,0.000
 01041,-0.00000341,0.00000038,-0.00000085,0.00000116,-0.00000220,0.0000
 0016,-0.00000213,-0.00000064,-0.00000431,-0.00000801,0.00006349,0.0000
 6682,0.00005547,-0.00062492,0.00009608,0.00019374,0.00004450,-0.000127
 01,0.00001814,0.00131961,0.00025038,-0.00067457,-0.00227353,-0.0053921
 4,-0.00236575,-0.00136234,0.03355345,-0.01538466,-0.00038102,-0.003282
 36,0.00056601,0.00006924,-0.00054637,0.00017195,0.00069155,-0.00025868
 ,-0.00054317,-0.00079599,0.00018080,0.00045636,-0.00343919,0.11668494,
 -0.10500749,0.00645508,-0.12423582,0.11295628,-0.00000927,-0.00000243,
 -0.00000054,-0.00000162,0.00000173,-0.00000005,-0.00000091,-0.00000292
 ,-0.00000653,-0.00001337,0.00004244,-0.00000305,0.00001566,-0.00000911
 ,-0.00000577,0.00000003,0.00000211,0.00000045,-0.00001427,-0.00001269,
 -0.00002613,0.00000119,-0.00000349,0.00000033,0.00000821,0.00000086,0.
 00000302,0.00005792,-0.00000532,0.00003899,0.00000678,-0.00000577,0.00
 000662,0.00005880,-0.00008840,0.00004192,-0.00000023,-0.00000027,-0.00
 000031,0.00000072,-0.00000044,0.00000010,0.00000036,0.00000113,0.00000
 001,0.00000065,0.00000054,-0.00000014,0.00000108,0.00000042,0.00000024
 ,-0.00000116,-0.00000097,-0.00000081,-0.00000007,-0.00000011,-0.000000
 17,-0.00000279,0.00000173,0.00000018,-0.00000380,-0.00001314,-0.000002
 98,0.00000004,0.00000141,-0.00000184,0.00000338,0.00000098,0.00000411,
 -0.00000167,0.00000595,0.00001309,-0.00032589,-0.00009467,-0.00003226,
 -0.00179060,0.00008003,-0.00039060,-0.00015331,0.00037223,-0.00013555,
 0.00037728,-0.00015604,-0.00059251,0.00094193,-0.00082192,-0.00004255,
 0.00176655,-0.00320885,-0.00131504,0.00128343,0.00086828,-0.00021229,0
 .00001262,0.00010000,-0.00003146,-0.00001326,-0.00006157,-0.00014627,0
 .00019318,-0.00008094,-0.00028073,-0.23051435,0.11521909,0.07209212,-0
 .00015630,-0.00081759,-0.00047965,0.24430775,-0.00000743,-0.00000076,-
 0.00000160,-0.00000253,0.00000293,-0.00000050,-0.00000080,-0.00000363,
 -0.00000672,-0.00001858,0.00004681,-0.00000680,0.00001350,-0.00001003,
 -0.00000333,-0.00000002,0.00000318,-0.00000089,-0.00000829,-0.00000430
 ,-0.00001228,0.00000116,-0.00000490,0.00000161,0.00000897,-0.00000125,
 0.00000362,0.00006771,-0.00001417,0.00003761,0.00000575,-0.00000690,0.
 00000741,0.00004317,-0.00009060,0.00002300,0.00000018,0.00000020,-0.00
 000005,0.00000027,-0.00000046,0.00000006,0.00000043,0.00000126,-0.0000
 0002,-0.00000014,0.00000047,0.00000063,0.00000106,0.00000027,0.0000004
 0,-0.00000085,-0.00000083,-0.00000151,-0.00000015,0.00000046,-0.000000
 15,-0.00000184,0.00000194,0.00000005,-0.00000464,-0.00000822,0.0000026
 0,0.00000196,0.00000230,-0.00000193,0.00000301,-0.00000071,0.00000333,
 0.00000780,0.00000597,0.00001368,-0.00004183,-0.00011026,-0.00002492,0
 .00026782,-0.00015103,0.00055297,-0.00002489,0.00018909,0.00003388,0.0
 0007620,-0.00005135,-0.00089186,-0.00193627,-0.00000619,0.00025013,0.0
 0416588,-0.00411633,0.00255262,0.00026646,0.00146639,-0.00031214,0.000
 09374,0.00031702,-0.00009003,-0.00034595,0.00016016,-0.00010582,0.0003
 3667,-0.00006803,-0.00041644,0.11393333,-0.11885819,-0.04941747,0.0206
 9045,-0.01130883,-0.00999980,-0.12523584,0.12283886,-0.00002648,-0.000
 00774,0.00000433,-0.00000268,0.00000192,0.00000474,-0.00000823,-0.0000
 0943,-0.00001947,-0.00004429,0.00009169,0.00000243,0.00004701,-0.00001
 747,-0.00002033,0.00000047,0.00000360,0.00000150,-0.00003714,-0.000030
 38,-0.00007435,0.00000459,-0.00000311,-0.00000160,0.00002164,0.0000097
 8,0.00000297,0.00018170,-0.00000612,0.00008013,0.00001834,-0.00000927,
 0.00001418,0.00014606,-0.00018484,0.00010224,0.,-0.00000077,-0.0000000
 4,0.00000203,-0.00000143,0.00000018,-0.00000074,0.00000089,-0.00000045
 ,0.00000237,0.00000230,-0.00000055,0.00000322,0.00000069,-0.00000060,-
 0.00000125,-0.00000359,-0.00000167,0.00000036,0.00000018,-0.00000042,-
 0.00000679,0.00000378,0.00000171,-0.00000760,-0.00003573,0.00001343,-0
 .00000027,0.00000549,-0.00000489,0.00000880,0.00000226,0.00001112,-0.0
 0000569,0.00001200,0.00003830,-0.00041412,-0.00027275,-0.00000730,-0.0
 0039496,0.00035141,0.00012399,-0.00032622,0.00055132,-0.00019042,-0.00
 063007,-0.00058829,-0.00160843,-0.00022569,0.00242495,0.00443868,0.031
 10527,-0.01823972,-0.01070901,-0.00232050,-0.00057004,-0.00550346,0.00
 141077,-0.00029220,-0.00079066,-0.00032524,0.00007860,0.00045455,0.000
 04435,0.00003868,-0.00002722,0.06738683,-0.04649797,-0.07645178,-0.013
 56061,0.00653563,0.00559243,-0.07643978,0.05109902,0.08276297,0.000004
 11,0.00000083,-0.00000004,0.00000037,-0.00000227,-0.00000009,0.0000013
 1,0.00000177,0.00000418,0.00000749,-0.00002750,0.00000273,-0.00000707,
 0.00000712,0.00000239,-0.00000006,-0.00000185,-0.00000007,0.00000277,0
 .00000452,0.00001245,0.00000002,0.00000232,-0.00000029,-0.00000405,0.0
 0000028,-0.00000185,-0.00004503,0.00000625,-0.00002554,-0.00000274,0.0
 0000404,-0.00000376,-0.00002664,0.00005516,-0.00001905,-0.00000010,0.0
 0000023,0.00000037,-0.00000035,0.00000033,-0.00000007,-0.00000044,-0.0
 0000066,-0.00000009,-0.00000019,-0.00000034,-0.00000006,-0.00000054,0.
 00000005,-0.00000019,-0.00000011,0.00000047,0.00000069,-0.00000002,-0.
 00000016,-0.00000007,0.00000026,-0.00000136,-0.00000022,0.00000072,0.0
 0000706,-0.00000204,-0.00000119,-0.00000160,0.00000126,-0.00000206,-0.
 00000013,-0.00000219,-0.00000214,-0.00000429,-0.00000797,0.00008704,0.
 00006847,-0.00000198,0.00005127,-0.00006298,-0.00018449,0.00005490,-0.
 00014112,0.00003843,-0.00010992,0.00013558,0.00060047,0.00232210,-0.00
 214751,0.00050791,-0.00280720,0.00168006,-0.00440132,-0.00042267,-0.00
 018080,0.00138032,0.00014820,0.00030454,-0.00018378,-0.00001651,0.0000
 7265,-0.00026445,0.00027858,0.00067511,0.00045536,-0.24426949,-0.11649
 876,-0.04559110,0.00134529,0.00147510,0.00077786,-0.01603466,-0.012355
 47,-0.00560545,0.25944875,0.00000081,0.00000056,-0.00000060,-0.0000001
 0,0.00000089,-0.00000061,0.00000031,-0.00000106,-0.00000011,0.00000154
 ,0.00000853,-0.00000136,-0.00000206,-0.00000331,0.00000074,0.00000018,
 0.00000082,-0.00000074,0.00000137,-0.00000054,-0.00000254,-0.00000098,
 -0.00000114,0.00000084,0.00000007,-0.00000024,0.00000092,0.00001721,-0
 .00000125,0.00000858,-0.00000058,-0.00000134,0.00000090,0.00000374,-0.
 00001662,0.00000323,0.00000017,0.00000020,0.00000009,-0.00000030,-0.00
 000016,0.00000009,0.00000046,0.00000034,0.,-0.00000013,-0.00000019,0.0
 0000023,-0.00000023,-0.00000003,0.00000009,0.00000079,-0.00000004,-0.0
 0000022,0.00000010,-0.00000011,0.00000010,0.00000092,0.00000032,-0.000
 00025,0.00000158,-0.00000229,0.00000175,0.00000073,0.00000012,-0.00000
 033,0.00000049,0.00000026,0.00000054,0.00000192,0.00000114,0.00000112,
 -0.00001937,-0.00004399,0.00002281,-0.00022664,0.00017403,0.00026091,-
 0.00002583,0.00004311,-0.00001406,0.00062489,-0.00030064,-0.00066946,-
 0.00122346,0.00072354,-0.00037583,-0.00253031,-0.00434216,0.00425087,0
 .00030594,0.00035020,0.00010055,-0.00001386,0.00006899,0.00011634,-0.0
 0001080,-0.00018334,-0.00010094,0.00012818,0.00009079,-0.00018811,-0.1
 1518968,-0.11004139,-0.03629134,-0.02269543,-0.01352532,-0.00703196,0.
 01392352,0.00977970,0.00555667,0.12692486,0.11722163,0.00000469,0.0000
 0147,-0.00000096,0.00000040,0.00000001,-0.00000083,0.00000134,0.000001
 09,0.00000379,0.00001100,-0.00001625,0.00000011,-0.00000851,0.00000326
 ,0.00000349,-0.00000006,-0.00000081,0.,0.00000863,0.00000285,0.0000093
 9,-0.00000056,0.00000080,-0.00000003,-0.00000349,-0.00000196,-0.000000
 43,-0.00002573,-0.00000063,-0.00001125,-0.00000309,0.00000208,-0.00000
 277,-0.00002135,0.00004425,-0.00002392,0.00000003,0.00000016,0.0000001
 2,-0.00000041,0.00000033,0.00000001,-0.00000008,-0.00000027,0.00000018
 ,-0.00000076,-0.00000033,0.00000030,-0.00000062,-0.00000017,0.00000020
 ,0.00000017,0.00000064,0.00000025,0.00000016,0.00000001,0.00000020,0.0
 0000107,-0.00000078,-0.00000016,0.00000165,0.00000704,-0.00000289,0.00
 000084,-0.00000241,0.00000138,-0.00000282,0.00000014,-0.00000145,-0.00
 000081,-0.00000432,-0.00000700,0.00007807,0.00001741,0.00003199,-0.000
 49478,0.00037999,0.00031198,0.00000701,-0.00012172,0.00004415,0.001435
 15,-0.00101992,-0.00065972,-0.00084899,0.00252415,-0.00858108,-0.03109
 364,-0.01811397,-0.00292648,0.00110340,0.00224117,0.00037339,-0.000346
 09,0.00028711,0.00038225,-0.00008341,-0.00007441,0.00013683,0.00055010
 ,-0.00044818,-0.00071893,-0.04465233,-0.03458446,-0.05525045,0.0139262
 6,0.00781390,0.00400104,0.00794582,0.00671165,0.00176279,0.05251176,0.
 03435110,0.06112450\\-0.00000146,-0.00001094,0.00001090,-0.00000246,-0
 .00000413,-0.00000082,0.00000204,0.00000405,0.00000176,0.00001820,-0.0
 0000394,0.00000267,-0.00000165,0.00001067,0.00000101,0.00000559,0.0000
 0490,-0.00000420,-0.00000329,0.00001257,0.00000496,-0.00001158,-0.0000
 0938,0.00000809,0.00000117,0.00000380,-0.00001132,-0.00001447,-0.00001
 174,-0.00000291,-0.00000740,0.00000418,0.00000669,0.00000337,0.0000000
 5,-0.00000233,-0.00000473,-0.00000635,0.00000815,-0.00000002,-0.000006
 81,0.00000367,0.00000293,0.00000293,0.00001082,0.00000028,-0.00000767,
 -0.00000264,0.00000416,-0.00000211,-0.00000345,-0.00000161,0.00000038,
 -0.00000449,0.00000330,0.00000949,-0.00000732,0.00000276,-0.00000114,0
 .00000699,-0.00000136,0.00000266,-0.00000910,-0.00000127,0.00000178,0.
 00000293,-0.00000144,0.00000267,0.00000717,-0.00000221,-0.00000475,0.0
 0000838,0.00000457,-0.00000537,-0.00000689,0.00001017,0.00003151,-0.00
 000155,-0.00000368,-0.00001888,0.00002020,-0.00000477,-0.00000678,-0.0
 0001144,-0.00000444,0.00000692,-0.00000416,-0.00000330,-0.00001640,0.0
 0001162,0.00001642,0.00001809,-0.00000737,-0.00000118,0.00000618,-0.00
 000903,-0.00000247,0.00000073,-0.00000531,0.00000182,0.00000038,-0.000
 00466,-0.00000569,0.00001262,-0.00001676,0.00000391,-0.00000849,-0.000
 00313,-0.00000021,-0.00000527,-0.00000033,0.00000002,-0.00000641,0.000
 00322\\\@


 NO SCIENCE HAS EVER MADE MORE RAPID PROGRESS IN A
 SHORTER TIME THAN CHEMISTRY.
   -- MARTIN HEINRICH KLOPROTH, 1791
 (FIRST PROFESSOR OF CHEMISTRY AT THE UNIVERSITY OF BERLIN)
 Job cpu time:       0 days 12 hours 19 minutes 14.1 seconds.
 Elapsed time:       0 days  0 hours 30 minutes 51.1 seconds.
 File lengths (MBytes):  RWF=   1059 Int=      0 D2E=      0 Chk=     32 Scr=      1
 Normal termination of Gaussian 16 at Mon Dec 10 19:41:48 2018.
