 Entering Gaussian System, Link 0=g16
 Initial command:
 /nopt/nrel/apps/gaussian/G16.sandy/g16/l1.exe "/scratch/ykim/gaussianScratch.6093134/Gau-17295.inp" -scrdir="/scratch/ykim/gaussianScratch.6093134/"
 Default linda workers: n1664
 Default is to use  24 SMP processors on each worker.
 Entering Link 1 = /nopt/nrel/apps/gaussian/G16.sandy/g16/l1.exe PID=     17296.
  
 Copyright (c) 1988,1990,1992,1993,1995,1998,2003,2009,2016,
            Gaussian, Inc.  All Rights Reserved.
  
 This is part of the Gaussian(R) 16 program.  It is based on
 the Gaussian(R) 09 system (copyright 2009, Gaussian, Inc.),
 the Gaussian(R) 03 system (copyright 2003, Gaussian, Inc.),
 the Gaussian(R) 98 system (copyright 1998, Gaussian, Inc.),
 the Gaussian(R) 94 system (copyright 1995, Gaussian, Inc.),
 the Gaussian 92(TM) system (copyright 1992, Gaussian, Inc.),
 the Gaussian 90(TM) system (copyright 1990, Gaussian, Inc.),
 the Gaussian 88(TM) system (copyright 1988, Gaussian, Inc.),
 the Gaussian 86(TM) system (copyright 1986, Carnegie Mellon
 University), and the Gaussian 82(TM) system (copyright 1983,
 Carnegie Mellon University). Gaussian is a federally registered
 trademark of Gaussian, Inc.
  
 This software contains proprietary and confidential information,
 including trade secrets, belonging to Gaussian, Inc.
  
 This software is provided under written license and may be
 used, copied, transmitted, or stored only in accord with that
 written license.
  
 The following legend is applicable only to US Government
 contracts under FAR:
  
                    RESTRICTED RIGHTS LEGEND
  
 Use, reproduction and disclosure by the US Government is
 subject to restrictions as set forth in subparagraphs (a)
 and (c) of the Commercial Computer Software - Restricted
 Rights clause in FAR 52.227-19.
  
 Gaussian, Inc.
 340 Quinnipiac St., Bldg. 40, Wallingford CT 06492
  
  
 ---------------------------------------------------------------
 Warning -- This program may not be used in any manner that
 competes with the business of Gaussian, Inc. or will provide
 assistance to any competitor of Gaussian, Inc.  The licensee
 of this program is prohibited from giving any competitor of
 Gaussian, Inc. access to this program.  By using this program,
 the user acknowledges that Gaussian, Inc. is engaged in the
 business of creating and licensing software in the field of
 computational chemistry and represents and warrants to the
 licensee that it is not a competitor of Gaussian, Inc. and that
 it will not use this program in any manner prohibited above.
 ---------------------------------------------------------------
  

 Cite this work as:
 Gaussian 16, Revision A.03,
 M. J. Frisch, G. W. Trucks, H. B. Schlegel, G. E. Scuseria, 
 M. A. Robb, J. R. Cheeseman, G. Scalmani, V. Barone, 
 G. A. Petersson, H. Nakatsuji, X. Li, M. Caricato, A. V. Marenich, 
 J. Bloino, B. G. Janesko, R. Gomperts, B. Mennucci, H. P. Hratchian, 
 J. V. Ortiz, A. F. Izmaylov, J. L. Sonnenberg, D. Williams-Young, 
 F. Ding, F. Lipparini, F. Egidi, J. Goings, B. Peng, A. Petrone, 
 T. Henderson, D. Ranasinghe, V. G. Zakrzewski, J. Gao, N. Rega, 
 G. Zheng, W. Liang, M. Hada, M. Ehara, K. Toyota, R. Fukuda, 
 J. Hasegawa, M. Ishida, T. Nakajima, Y. Honda, O. Kitao, H. Nakai, 
 T. Vreven, K. Throssell, J. A. Montgomery, Jr., J. E. Peralta, 
 F. Ogliaro, M. J. Bearpark, J. J. Heyd, E. N. Brothers, K. N. Kudin, 
 V. N. Staroverov, T. A. Keith, R. Kobayashi, J. Normand, 
 K. Raghavachari, A. P. Rendell, J. C. Burant, S. S. Iyengar, 
 J. Tomasi, M. Cossi, J. M. Millam, M. Klene, C. Adamo, R. Cammi, 
 J. W. Ochterski, R. L. Martin, K. Morokuma, O. Farkas, 
 J. B. Foresman, and D. J. Fox, Gaussian, Inc., Wallingford CT, 2016.
 
 ******************************************
 Gaussian 16:  ES64L-G16RevA.03 25-Dec-2016
                14-Dec-2018 
 ******************************************
 %nprocshared=24
 Will use up to   24 processors via shared memory.
 %mem=24GB
 SetLPE:    new flags="-opt 'Tsnet.Node.lindarsharg: ssh'  -nodelist 'n1664.hpc.nrel.gov' -env GAUSS_MDEF=3221225472 -env GAUSS_EXEDIR="/nopt/nrel/apps/gaussian/G16.sandy/g16/bsd:/nopt/nrel/apps/gaussian/G16.sandy/g16/local:/nopt/nrel/apps/gaussian/G16.sandy/g16/extras:/nopt/nrel/apps/gaussian/G16.sandy/g16""
 Will use up to    1 processors via Linda.
 Default route: CacheSize=327680 MaxDisk=128GB
 ----------------------------------------------------------------------
 # opt=maxstep=1 freq m062x/6-311++g(d,p) scrf=(solvent=1-butanol,smd) 
 temperature=443.15 nosymm
 ----------------------------------------------------------------------
 1/4=327680,8=1,18=20,19=15,26=3,38=1,112=443150/1,3;
 2/4=327680,9=110,12=2,15=1,17=6,18=5,40=1/2;
 3/4=327680,5=4,6=6,7=1111,11=2,25=1,30=1,70=32201,71=1,72=36,74=-55/1,2,3;
 4/4=327680/1;
 5/4=327680,5=2,38=5,53=36/2;
 6/4=327680,7=2,8=2,9=2,10=2,28=1/1;
 7/4=327680,30=1/1,2,3,16;
 1/4=327680,8=1,18=20,19=15,26=3/3(2);
 2/4=327680,9=110,15=1/2;
 99/4=327680/99;
 2/4=327680,9=110,15=1/2;
 3/4=327680,5=4,6=6,7=1111,11=2,25=1,30=1,70=32205,71=1,72=36,74=-55/1,2,3;
 4/4=327680,5=5,16=3,69=1/1;
 5/4=327680,5=2,38=5,53=36/2;
 7/4=327680,30=1/1,2,3,16;
 1/4=327680,8=1,18=20,19=15,26=3/3(-5);
 2/4=327680,9=110,15=1/2;
 6/4=327680,7=2,8=2,9=2,10=2,19=2,28=1/1;
 99/4=327680,9=1/99;
 -------------------
 Title Card Required
 -------------------
 Symbolic Z-matrix:
 Charge =  1 Multiplicity = 1
 C                     3.2874    0.30215  -1.25174 
 C                     3.60395   1.25829  -0.08877 
 C                     2.9069    0.60613   1.11742 
 C                     1.68386  -0.0278    0.42321 
 O                     2.19202  -0.51956  -0.79709 
 C                     4.42789  -0.59433  -1.67189 
 C                     1.04566  -1.18391   1.17065 
 O                     4.88665  -1.31161  -0.53048 
 O                     2.99202   2.50674  -0.40088 
 O                     0.68996   0.95665   0.19202 
 O                     3.71745  -0.33913   1.7707 
 O                     0.0286   -1.81942   0.39094 
 H                     4.07668  -1.28858  -2.44092 
 H                     5.2266    0.02591  -2.08903 
 H                     5.70054  -1.78071  -0.74405 
 H                     2.9643    0.88646  -2.1176 
 H                     4.67671   1.37468   0.08058 
 H                     3.22215   3.14563   0.28545 
 H                     2.5965    1.34798   1.85372 
 H                     4.19832  -0.85718   1.10026 
 H                     1.11186   1.76004  -0.15485 
 H                     0.5647   -0.81316   2.0761 
 H                     1.81004  -1.91302   1.43461 
 H                     0.43662  -2.25626  -0.36939 
 H                    -1.1009    0.63403  -0.17608 
 O                    -1.73459  -0.11297  -0.24103 
 H                    -1.14314  -0.9087    0.00506 
 H                    -2.5396    0.01161   0.43783 
 O                    -3.65911   0.1524    1.28129 
 H                    -3.48274   0.73315   2.03323 
 C                    -4.87154   0.56997   0.61083 
 H                    -5.63763   0.71612   1.37342 
 H                    -4.68788   1.52155   0.10202 
 C                    -5.25905  -0.50982  -0.37797 
 H                    -5.49818  -1.42585   0.1726 
 H                    -4.39426  -0.72512  -1.01387 
 C                    -6.44678  -0.09799  -1.25002 
 H                    -6.1747    0.78589  -1.83689 
 H                    -6.64038  -0.9004   -1.96687 
 C                    -7.71857   0.18582  -0.45234 
 H                    -7.6109    1.06763   0.18445 
 H                    -8.56462   0.36543  -1.11976 
 H                    -7.97236  -0.66305   0.18996 
 
 Add virtual bond connecting atoms O29        and H28        Dist= 2.66D+00.
 Add virtual bond connecting atoms H27        and O12        Dist= 2.90D+00.

 GradGradGradGradGradGradGradGradGradGradGradGradGradGradGradGradGradGrad
 Berny optimization.
 Initialization pass.
                           ----------------------------
                           !    Initial Parameters    !
                           ! (Angstroms and Degrees)  !
 --------------------------                            --------------------------
 ! Name  Definition              Value          Derivative Info.                !
 --------------------------------------------------------------------------------
 ! R1    R(1,2)                  1.5385         estimate D2E/DX2                !
 ! R2    R(1,5)                  1.4428         estimate D2E/DX2                !
 ! R3    R(1,6)                  1.5103         estimate D2E/DX2                !
 ! R4    R(1,16)                 1.0934         estimate D2E/DX2                !
 ! R5    R(2,3)                  1.5382         estimate D2E/DX2                !
 ! R6    R(2,9)                  1.425          estimate D2E/DX2                !
 ! R7    R(2,17)                 1.0923         estimate D2E/DX2                !
 ! R8    R(3,4)                  1.5426         estimate D2E/DX2                !
 ! R9    R(3,11)                 1.4062         estimate D2E/DX2                !
 ! R10   R(3,19)                 1.0903         estimate D2E/DX2                !
 ! R11   R(4,5)                  1.4104         estimate D2E/DX2                !
 ! R12   R(4,7)                  1.5174         estimate D2E/DX2                !
 ! R13   R(4,10)                 1.4179         estimate D2E/DX2                !
 ! R14   R(6,8)                  1.424          estimate D2E/DX2                !
 ! R15   R(6,13)                 1.0939         estimate D2E/DX2                !
 ! R16   R(6,14)                 1.0939         estimate D2E/DX2                !
 ! R17   R(7,12)                 1.4305         estimate D2E/DX2                !
 ! R18   R(7,22)                 1.0902         estimate D2E/DX2                !
 ! R19   R(7,23)                 1.0888         estimate D2E/DX2                !
 ! R20   R(8,15)                 0.9634         estimate D2E/DX2                !
 ! R21   R(9,18)                 0.9655         estimate D2E/DX2                !
 ! R22   R(10,21)                0.9715         estimate D2E/DX2                !
 ! R23   R(11,20)                0.9742         estimate D2E/DX2                !
 ! R24   R(12,24)                0.9672         estimate D2E/DX2                !
 ! R25   R(12,27)                1.5334         estimate D2E/DX2                !
 ! R26   R(25,26)                0.9817         estimate D2E/DX2                !
 ! R27   R(26,27)                1.0215         estimate D2E/DX2                !
 ! R28   R(26,28)                1.0604         estimate D2E/DX2                !
 ! R29   R(28,29)                1.4087         estimate D2E/DX2                !
 ! R30   R(29,30)                0.9663         estimate D2E/DX2                !
 ! R31   R(29,31)                1.447          estimate D2E/DX2                !
 ! R32   R(31,32)                1.0908         estimate D2E/DX2                !
 ! R33   R(31,33)                1.0946         estimate D2E/DX2                !
 ! R34   R(31,34)                1.5145         estimate D2E/DX2                !
 ! R35   R(34,35)                1.0952         estimate D2E/DX2                !
 ! R36   R(34,36)                1.0948         estimate D2E/DX2                !
 ! R37   R(34,37)                1.53           estimate D2E/DX2                !
 ! R38   R(37,38)                1.0953         estimate D2E/DX2                !
 ! R39   R(37,39)                1.0933         estimate D2E/DX2                !
 ! R40   R(37,40)                1.5278         estimate D2E/DX2                !
 ! R41   R(40,41)                1.093          estimate D2E/DX2                !
 ! R42   R(40,42)                1.0925         estimate D2E/DX2                !
 ! R43   R(40,43)                1.0943         estimate D2E/DX2                !
 ! A1    A(2,1,5)              105.78           estimate D2E/DX2                !
 ! A2    A(2,1,6)              115.0765         estimate D2E/DX2                !
 ! A3    A(2,1,16)             109.1048         estimate D2E/DX2                !
 ! A4    A(5,1,6)              108.839          estimate D2E/DX2                !
 ! A5    A(5,1,16)             109.2403         estimate D2E/DX2                !
 ! A6    A(6,1,16)             108.6668         estimate D2E/DX2                !
 ! A7    A(1,2,3)              103.6525         estimate D2E/DX2                !
 ! A8    A(1,2,9)              106.8922         estimate D2E/DX2                !
 ! A9    A(1,2,17)             112.6751         estimate D2E/DX2                !
 ! A10   A(3,2,9)              110.4023         estimate D2E/DX2                !
 ! A11   A(3,2,17)             111.6333         estimate D2E/DX2                !
 ! A12   A(9,2,17)             111.2457         estimate D2E/DX2                !
 ! A13   A(2,3,4)              100.4058         estimate D2E/DX2                !
 ! A14   A(2,3,11)             112.8364         estimate D2E/DX2                !
 ! A15   A(2,3,19)             111.7204         estimate D2E/DX2                !
 ! A16   A(4,3,11)             112.9444         estimate D2E/DX2                !
 ! A17   A(4,3,19)             110.9654         estimate D2E/DX2                !
 ! A18   A(11,3,19)            107.9231         estimate D2E/DX2                !
 ! A19   A(3,4,5)              104.3004         estimate D2E/DX2                !
 ! A20   A(3,4,7)              115.1433         estimate D2E/DX2                !
 ! A21   A(3,4,10)             110.1094         estimate D2E/DX2                !
 ! A22   A(5,4,7)              108.1842         estimate D2E/DX2                !
 ! A23   A(5,4,10)             110.7051         estimate D2E/DX2                !
 ! A24   A(7,4,10)             108.3296         estimate D2E/DX2                !
 ! A25   A(1,5,4)              110.3408         estimate D2E/DX2                !
 ! A26   A(1,6,8)              108.6199         estimate D2E/DX2                !
 ! A27   A(1,6,13)             109.2586         estimate D2E/DX2                !
 ! A28   A(1,6,14)             108.7164         estimate D2E/DX2                !
 ! A29   A(8,6,13)             110.3187         estimate D2E/DX2                !
 ! A30   A(8,6,14)             110.8568         estimate D2E/DX2                !
 ! A31   A(13,6,14)            109.0368         estimate D2E/DX2                !
 ! A32   A(4,7,12)             111.6558         estimate D2E/DX2                !
 ! A33   A(4,7,22)             109.6053         estimate D2E/DX2                !
 ! A34   A(4,7,23)             109.5325         estimate D2E/DX2                !
 ! A35   A(12,7,22)            106.8645         estimate D2E/DX2                !
 ! A36   A(12,7,23)            109.4985         estimate D2E/DX2                !
 ! A37   A(22,7,23)            109.6375         estimate D2E/DX2                !
 ! A38   A(6,8,15)             109.8612         estimate D2E/DX2                !
 ! A39   A(2,9,18)             108.765          estimate D2E/DX2                !
 ! A40   A(4,10,21)            109.1459         estimate D2E/DX2                !
 ! A41   A(3,11,20)            108.8002         estimate D2E/DX2                !
 ! A42   A(7,12,24)            109.2212         estimate D2E/DX2                !
 ! A43   A(7,12,27)            114.6215         estimate D2E/DX2                !
 ! A44   A(24,12,27)           113.1285         estimate D2E/DX2                !
 ! A45   A(25,26,27)           101.7151         estimate D2E/DX2                !
 ! A46   A(25,26,28)           110.9951         estimate D2E/DX2                !
 ! A47   A(27,26,28)           112.1377         estimate D2E/DX2                !
 ! A48   A(12,27,26)           164.9454         estimate D2E/DX2                !
 ! A49   A(28,29,30)           112.391          estimate D2E/DX2                !
 ! A50   A(28,29,31)           114.6631         estimate D2E/DX2                !
 ! A51   A(30,29,31)           109.879          estimate D2E/DX2                !
 ! A52   A(29,31,32)           107.6509         estimate D2E/DX2                !
 ! A53   A(29,31,33)           109.0058         estimate D2E/DX2                !
 ! A54   A(29,31,34)           108.1279         estimate D2E/DX2                !
 ! A55   A(32,31,33)           109.0471         estimate D2E/DX2                !
 ! A56   A(32,31,34)           111.8551         estimate D2E/DX2                !
 ! A57   A(33,31,34)           111.0539         estimate D2E/DX2                !
 ! A58   A(31,34,35)           108.9038         estimate D2E/DX2                !
 ! A59   A(31,34,36)           108.5007         estimate D2E/DX2                !
 ! A60   A(31,34,37)           112.2623         estimate D2E/DX2                !
 ! A61   A(35,34,36)           107.4565         estimate D2E/DX2                !
 ! A62   A(35,34,37)           110.0094         estimate D2E/DX2                !
 ! A63   A(36,34,37)           109.5776         estimate D2E/DX2                !
 ! A64   A(34,37,38)           109.255          estimate D2E/DX2                !
 ! A65   A(34,37,39)           108.2793         estimate D2E/DX2                !
 ! A66   A(34,37,40)           113.4925         estimate D2E/DX2                !
 ! A67   A(38,37,39)           106.5558         estimate D2E/DX2                !
 ! A68   A(38,37,40)           109.6707         estimate D2E/DX2                !
 ! A69   A(39,37,40)           109.3461         estimate D2E/DX2                !
 ! A70   A(37,40,41)           111.8414         estimate D2E/DX2                !
 ! A71   A(37,40,42)           110.8686         estimate D2E/DX2                !
 ! A72   A(37,40,43)           110.817          estimate D2E/DX2                !
 ! A73   A(41,40,42)           107.4325         estimate D2E/DX2                !
 ! A74   A(41,40,43)           107.8608         estimate D2E/DX2                !
 ! A75   A(42,40,43)           107.8488         estimate D2E/DX2                !
 ! A76   L(26,28,29,36,-1)     176.7143         estimate D2E/DX2                !
 ! A77   L(26,28,29,36,-2)     180.0662         estimate D2E/DX2                !
 ! D1    D(5,1,2,3)             16.4667         estimate D2E/DX2                !
 ! D2    D(5,1,2,9)           -100.1926         estimate D2E/DX2                !
 ! D3    D(5,1,2,17)           137.307          estimate D2E/DX2                !
 ! D4    D(6,1,2,3)           -103.7129         estimate D2E/DX2                !
 ! D5    D(6,1,2,9)            139.6278         estimate D2E/DX2                !
 ! D6    D(6,1,2,17)            17.1274         estimate D2E/DX2                !
 ! D7    D(16,1,2,3)           133.8719         estimate D2E/DX2                !
 ! D8    D(16,1,2,9)            17.2126         estimate D2E/DX2                !
 ! D9    D(16,1,2,17)         -105.2878         estimate D2E/DX2                !
 ! D10   D(2,1,5,4)              9.0238         estimate D2E/DX2                !
 ! D11   D(6,1,5,4)            133.2024         estimate D2E/DX2                !
 ! D12   D(16,1,5,4)          -108.2903         estimate D2E/DX2                !
 ! D13   D(2,1,6,8)             54.8239         estimate D2E/DX2                !
 ! D14   D(2,1,6,13)           175.2122         estimate D2E/DX2                !
 ! D15   D(2,1,6,14)           -65.895          estimate D2E/DX2                !
 ! D16   D(5,1,6,8)            -63.6587         estimate D2E/DX2                !
 ! D17   D(5,1,6,13)            56.7296         estimate D2E/DX2                !
 ! D18   D(5,1,6,14)           175.6224         estimate D2E/DX2                !
 ! D19   D(16,1,6,8)           177.474          estimate D2E/DX2                !
 ! D20   D(16,1,6,13)          -62.1377         estimate D2E/DX2                !
 ! D21   D(16,1,6,14)           56.7552         estimate D2E/DX2                !
 ! D22   D(1,2,3,4)            -33.0246         estimate D2E/DX2                !
 ! D23   D(1,2,3,11)            87.4661         estimate D2E/DX2                !
 ! D24   D(1,2,3,19)          -150.7183         estimate D2E/DX2                !
 ! D25   D(9,2,3,4)             81.1412         estimate D2E/DX2                !
 ! D26   D(9,2,3,11)          -158.3681         estimate D2E/DX2                !
 ! D27   D(9,2,3,19)           -36.5525         estimate D2E/DX2                !
 ! D28   D(17,2,3,4)          -154.5655         estimate D2E/DX2                !
 ! D29   D(17,2,3,11)          -34.0748         estimate D2E/DX2                !
 ! D30   D(17,2,3,19)           87.7408         estimate D2E/DX2                !
 ! D31   D(1,2,9,18)          -176.3651         estimate D2E/DX2                !
 ! D32   D(3,2,9,18)            71.5403         estimate D2E/DX2                !
 ! D33   D(17,2,9,18)          -52.9752         estimate D2E/DX2                !
 ! D34   D(2,3,4,5)             39.2051         estimate D2E/DX2                !
 ! D35   D(2,3,4,7)            157.5905         estimate D2E/DX2                !
 ! D36   D(2,3,4,10)           -79.6032         estimate D2E/DX2                !
 ! D37   D(11,3,4,5)           -81.2081         estimate D2E/DX2                !
 ! D38   D(11,3,4,7)            37.1774         estimate D2E/DX2                !
 ! D39   D(11,3,4,10)          159.9836         estimate D2E/DX2                !
 ! D40   D(19,3,4,5)           157.4543         estimate D2E/DX2                !
 ! D41   D(19,3,4,7)           -84.1602         estimate D2E/DX2                !
 ! D42   D(19,3,4,10)           38.646          estimate D2E/DX2                !
 ! D43   D(2,3,11,20)          -40.5478         estimate D2E/DX2                !
 ! D44   D(4,3,11,20)           72.4743         estimate D2E/DX2                !
 ! D45   D(19,3,11,20)        -164.4818         estimate D2E/DX2                !
 ! D46   D(3,4,5,1)            -30.8536         estimate D2E/DX2                !
 ! D47   D(7,4,5,1)           -153.8953         estimate D2E/DX2                !
 ! D48   D(10,4,5,1)            87.5482         estimate D2E/DX2                !
 ! D49   D(3,4,7,12)          -172.8357         estimate D2E/DX2                !
 ! D50   D(3,4,7,22)            68.9496         estimate D2E/DX2                !
 ! D51   D(3,4,7,23)           -51.3747         estimate D2E/DX2                !
 ! D52   D(5,4,7,12)           -56.644          estimate D2E/DX2                !
 ! D53   D(5,4,7,22)          -174.8586         estimate D2E/DX2                !
 ! D54   D(5,4,7,23)            64.8171         estimate D2E/DX2                !
 ! D55   D(10,4,7,12)           63.4126         estimate D2E/DX2                !
 ! D56   D(10,4,7,22)          -54.802          estimate D2E/DX2                !
 ! D57   D(10,4,7,23)         -175.1263         estimate D2E/DX2                !
 ! D58   D(3,4,10,21)           44.1739         estimate D2E/DX2                !
 ! D59   D(5,4,10,21)          -70.6349         estimate D2E/DX2                !
 ! D60   D(7,4,10,21)          170.897          estimate D2E/DX2                !
 ! D61   D(1,6,8,15)          -170.9595         estimate D2E/DX2                !
 ! D62   D(13,6,8,15)           69.3114         estimate D2E/DX2                !
 ! D63   D(14,6,8,15)          -51.5716         estimate D2E/DX2                !
 ! D64   D(4,7,12,24)           67.0621         estimate D2E/DX2                !
 ! D65   D(4,7,12,27)          -61.0623         estimate D2E/DX2                !
 ! D66   D(22,7,12,24)        -173.0959         estimate D2E/DX2                !
 ! D67   D(22,7,12,27)          58.7797         estimate D2E/DX2                !
 ! D68   D(23,7,12,24)         -54.4186         estimate D2E/DX2                !
 ! D69   D(23,7,12,27)         177.457          estimate D2E/DX2                !
 ! D70   D(7,12,27,26)          29.5399         estimate D2E/DX2                !
 ! D71   D(24,12,27,26)        -96.5844         estimate D2E/DX2                !
 ! D72   D(25,26,27,12)         -2.6256         estimate D2E/DX2                !
 ! D73   D(28,26,27,12)       -121.2713         estimate D2E/DX2                !
 ! D74   D(25,26,29,30)        -22.9254         estimate D2E/DX2                !
 ! D75   D(25,26,29,31)        103.6528         estimate D2E/DX2                !
 ! D76   D(27,26,29,30)         91.323          estimate D2E/DX2                !
 ! D77   D(27,26,29,31)       -142.0989         estimate D2E/DX2                !
 ! D78   D(28,29,31,32)       -175.731          estimate D2E/DX2                !
 ! D79   D(28,29,31,33)        -57.5789         estimate D2E/DX2                !
 ! D80   D(28,29,31,34)         63.2563         estimate D2E/DX2                !
 ! D81   D(30,29,31,32)        -48.015          estimate D2E/DX2                !
 ! D82   D(30,29,31,33)         70.1371         estimate D2E/DX2                !
 ! D83   D(30,29,31,34)       -169.0277         estimate D2E/DX2                !
 ! D84   D(29,31,34,35)         64.1413         estimate D2E/DX2                !
 ! D85   D(29,31,34,36)        -52.5352         estimate D2E/DX2                !
 ! D86   D(29,31,34,37)       -173.7857         estimate D2E/DX2                !
 ! D87   D(32,31,34,35)        -54.2227         estimate D2E/DX2                !
 ! D88   D(32,31,34,36)       -170.8991         estimate D2E/DX2                !
 ! D89   D(32,31,34,37)         67.8504         estimate D2E/DX2                !
 ! D90   D(33,31,34,35)       -176.3068         estimate D2E/DX2                !
 ! D91   D(33,31,34,36)         67.0168         estimate D2E/DX2                !
 ! D92   D(33,31,34,37)        -54.2338         estimate D2E/DX2                !
 ! D93   D(31,34,37,38)         61.7146         estimate D2E/DX2                !
 ! D94   D(31,34,37,39)        177.3892         estimate D2E/DX2                !
 ! D95   D(31,34,37,40)        -61.011          estimate D2E/DX2                !
 ! D96   D(35,34,37,38)       -176.8434         estimate D2E/DX2                !
 ! D97   D(35,34,37,39)        -61.1688         estimate D2E/DX2                !
 ! D98   D(35,34,37,40)         60.4311         estimate D2E/DX2                !
 ! D99   D(36,34,37,38)        -58.9159         estimate D2E/DX2                !
 ! D100  D(36,34,37,39)         56.7586         estimate D2E/DX2                !
 ! D101  D(36,34,37,40)        178.3585         estimate D2E/DX2                !
 ! D102  D(34,37,40,41)         66.4817         estimate D2E/DX2                !
 ! D103  D(34,37,40,42)       -173.6366         estimate D2E/DX2                !
 ! D104  D(34,37,40,43)        -53.9088         estimate D2E/DX2                !
 ! D105  D(38,37,40,41)        -56.0143         estimate D2E/DX2                !
 ! D106  D(38,37,40,42)         63.8674         estimate D2E/DX2                !
 ! D107  D(38,37,40,43)       -176.4048         estimate D2E/DX2                !
 ! D108  D(39,37,40,41)       -172.5162         estimate D2E/DX2                !
 ! D109  D(39,37,40,42)        -52.6345         estimate D2E/DX2                !
 ! D110  D(39,37,40,43)         67.0933         estimate D2E/DX2                !
 --------------------------------------------------------------------------------
 Trust Radius=1.00D-02 FncErr=1.00D-07 GrdErr=1.00D-06 EigMax=2.50D+02 EigMin=1.00D-04
 Number of steps in this run=    240 maximum allowed number of steps=    258.
 GradGradGradGradGradGradGradGradGradGradGradGradGradGradGradGradGradGrad

                          Input orientation:                          
 ---------------------------------------------------------------------
 Center     Atomic      Atomic             Coordinates (Angstroms)
 Number     Number       Type             X           Y           Z
 ---------------------------------------------------------------------
      1          6           0        3.287402    0.302152   -1.251744
      2          6           0        3.603945    1.258291   -0.088769
      3          6           0        2.906897    0.606133    1.117424
      4          6           0        1.683863   -0.027798    0.423210
      5          8           0        2.192017   -0.519556   -0.797091
      6          6           0        4.427890   -0.594333   -1.671893
      7          6           0        1.045662   -1.183908    1.170649
      8          8           0        4.886646   -1.311614   -0.530477
      9          8           0        2.992016    2.506740   -0.400881
     10          8           0        0.689963    0.956645    0.192015
     11          8           0        3.717445   -0.339130    1.770703
     12          8           0        0.028601   -1.819416    0.390940
     13          1           0        4.076681   -1.288577   -2.440916
     14          1           0        5.226595    0.025912   -2.089028
     15          1           0        5.700543   -1.780706   -0.744050
     16          1           0        2.964297    0.886455   -2.117596
     17          1           0        4.676708    1.374684    0.080580
     18          1           0        3.222155    3.145626    0.285449
     19          1           0        2.596503    1.347976    1.853720
     20          1           0        4.198322   -0.857181    1.100259
     21          1           0        1.111858    1.760035   -0.154847
     22          1           0        0.564704   -0.813162    2.076103
     23          1           0        1.810042   -1.913021    1.434614
     24          1           0        0.436622   -2.256255   -0.369390
     25          1           0       -1.100896    0.634025   -0.176083
     26          8           0       -1.734590   -0.112969   -0.241029
     27          1           0       -1.143144   -0.908701    0.005055
     28          1           0       -2.539596    0.011611    0.437825
     29          8           0       -3.659107    0.152400    1.281286
     30          1           0       -3.482743    0.733146    2.033230
     31          6           0       -4.871536    0.569973    0.610834
     32          1           0       -5.637630    0.716121    1.373416
     33          1           0       -4.687879    1.521546    0.102024
     34          6           0       -5.259047   -0.509817   -0.377970
     35          1           0       -5.498179   -1.425848    0.172596
     36          1           0       -4.394261   -0.725120   -1.013869
     37          6           0       -6.446779   -0.097992   -1.250022
     38          1           0       -6.174698    0.785889   -1.836889
     39          1           0       -6.640379   -0.900400   -1.966872
     40          6           0       -7.718573    0.185823   -0.452339
     41          1           0       -7.610898    1.067626    0.184454
     42          1           0       -8.564624    0.365430   -1.119758
     43          1           0       -7.972356   -0.663054    0.189964
 ---------------------------------------------------------------------
                    Distance matrix (angstroms):
                    1          2          3          4          5
     1  C    0.000000
     2  C    1.538477   0.000000
     3  C    2.418707   1.538209   0.000000
     4  C    2.342152   2.367037   1.542600   0.000000
     5  O    1.442838   2.378235   2.333152   1.410383   0.000000
     6  C    1.510273   2.572427   3.396296   3.498586   2.402082
     7  C    3.619635   3.754368   2.582881   1.517418   2.372234
     8  O    2.383705   2.906001   3.211345   3.579877   2.821252
     9  O    2.381476   1.424955   2.434092   2.968884   3.155226
    10  O    3.042941   2.942978   2.427764   1.417892   2.326729
    11  O    3.119514   2.454032   1.406159   2.459293   2.992165
    12  O    4.221285   4.741886   3.833491   2.439432   2.789520
    13  H    2.137173   3.498944   4.197631   3.939335   2.616393
    14  H    2.130217   2.855309   3.999874   4.343406   3.342948
    15  H    3.227894   3.749749   4.119046   4.535295   3.728682
    16  H    1.093392   2.159526   3.247650   2.988489   2.077743
    17  H    2.203539   1.092267   2.190422   3.322871   3.245326
    18  H    3.233043   1.961590   2.690835   3.529297   3.958110
    19  H    3.348880   2.190033   1.090324   2.184496   3.267734
    20  H    2.775923   2.498458   1.951758   2.732906   2.781940
    21  H    2.839295   2.542953   2.484417   1.964099   2.603028
    22  H    4.442024   4.267854   2.901608   2.145080   3.315056
    23  H    3.782341   3.949178   2.765834   2.143111   2.658601
    24  H    3.930769   4.739485   4.062775   2.673919   2.506085
    25  H    4.530380   4.746879   4.211454   2.924388   3.543963
    26  O    5.139482   5.513936   4.889366   3.483431   3.986573
    27  H    4.761874   5.219149   4.464854   2.990454   3.452270
    28  H    6.073958   6.290835   5.520833   4.223668   4.918874
    29  O    7.395448   7.473418   6.583702   5.414434   6.245545
    30  H    7.537352   7.416185   6.456186   5.464890   6.463968
    31  C    8.373123   8.532116   7.794996   6.585271   7.284443
    32  H    9.312305   9.372227   8.549068   7.420281   8.218356
    33  H    8.180753   8.298196   7.716841   6.565266   7.232391
    34  C    8.629285   9.042260   8.376407   7.005586   7.462849
    35  H    9.066486   9.493238   8.698675   7.321139   7.803895
    36  H    7.753697   8.292227   7.721499   6.284508   6.593050
    37  C    9.742402  10.208088   9.674288   8.301324   8.660927
    38  H    9.492509   9.944895   9.551735   8.217488   8.531547
    39  H   10.025885  10.636418  10.145590   8.704420   8.917659
    40  C   11.035582  11.379006  10.749020   9.445529   9.941640
    41  H   11.019145  11.219791  10.569173   9.362133   9.978964
    42  H   11.852930  12.244763  11.690112  10.371445  10.797807
    43  H   11.392642  11.737973  10.992232   9.679903  10.213195
                    6          7          8          9         10
     6  C    0.000000
     7  C    4.457254   0.000000
     8  O    1.424001   4.202772   0.000000
     9  O    3.646075   4.458574   4.264533   0.000000
    10  O    4.455534   2.380381   4.824846   2.837916   0.000000
    11  O    3.524390   2.865683   2.758294   3.652533   3.651977
    12  O    5.010973   1.430465   4.970661   5.303248   2.860679
    13  H    1.093946   4.716082   2.075175   4.443273   4.841818
    14  H    1.093908   5.437772   2.081735   3.741349   5.162407
    15  H    1.971806   5.068546   0.963374   5.082920   5.785777
    16  H    2.129199   4.333603   3.323534   2.360763   3.242194
    17  H    2.647659   4.573744   2.762908   2.086035   4.010151
    18  H    4.390020   4.926009   4.827344   0.965499   3.348487
    19  H    4.422272   3.046659   4.242943   2.565617   2.559160
    20  H    2.794032   3.170327   1.827457   3.876153   4.052586
    21  H    4.340570   3.229260   4.881101   2.037914   0.971465
    22  H    5.386981   1.090239   5.071676   4.800942   2.587990
    23  H    4.271118   1.088834   3.699833   4.929543   3.321688
    24  H    4.515387   1.972962   4.552034   5.405289   3.271404
    25  H    5.857797   3.118698   6.305693   4.506609   1.856544
    26  O    6.344702   3.296899   6.735080   5.406407   2.685155
    27  H    5.826440   2.495039   6.066919   5.378622   2.621975
    28  H    7.305063   3.849724   7.605104   6.125996   3.373954
    29  O    8.641666   4.892117   8.857523   7.253278   4.554968
    30  H    8.835624   4.992554   8.988899   7.140941   4.566344
    31  C    9.646024   6.196993  10.003253   8.161500   5.590635
    32  H   10.597447   6.951087  10.885628   8.990286   6.441428
    33  H    9.524756   6.429225  10.004918   7.759144   5.408179
    34  C    9.773338   6.527019  10.178469   8.785225   6.153545
    35  H   10.130173   6.623934  10.409224   9.374302   6.630969
    36  H    8.847624   5.880082   9.311975   8.085652   5.489246
    37  C   10.894162   7.948304  11.420908   9.828353   7.356957
    38  H   10.693321   8.065915  11.334000   9.436742   7.160250
    39  H   11.076428   8.306602  11.623452  10.336535   7.864053
    40  C   12.232437   9.017875  12.694092  10.959289   8.468343
    41  H   12.293923   8.998779  12.742077  10.716130   8.301606
    42  H   13.039610  10.000200  13.568213  11.775310   9.365771
    43  H   12.539431   9.086126  12.895487  11.428655   8.812446
                   11         12         13         14         15
    11  O    0.000000
    12  O    4.207441   0.000000
    13  H    4.332232   4.968717   0.000000
    14  H    4.160326   6.047695   1.781575   0.000000
    15  H    3.512094   5.784516   2.399682   2.301621   0.000000
    16  H    4.145861   4.715167   2.464285   2.420608   4.060470
    17  H    2.591112   5.648318   3.716306   2.613190   3.418295
    18  H    3.820316   5.904368   5.274982   4.403242   5.609904
    19  H    2.027247   4.331999   5.252260   4.920417   5.115870
    20  H    0.974225   4.337696   3.569428   3.465364   2.551674
    21  H    3.860482   3.779391   4.828076   4.866138   5.825808
    22  H    3.202772   2.034632   5.741382   6.307582   5.938539
    23  H    2.495651   2.066773   4.532915   5.277153   4.460951
    24  H    4.361097   0.967167   4.298564   5.577570   5.298621
    25  H    5.287099   2.759828   5.969353   6.638245   7.239688
    26  O    5.815746   2.533809   6.323957   7.203644   7.636464
    27  H    5.202619   1.533393   5.776993   6.769953   6.939568
    28  H    6.407039   3.154440   7.331627   8.166940   8.515229
    29  O    7.409092   4.275508   8.704804   9.504247   9.769439
    30  H    7.284326   4.641360   9.013891   9.661561   9.917937
    31  C    8.714491   5.456086   9.635246  10.466972  10.914681
    32  H    9.422782   6.284933  10.627125  11.423497  11.801355
    33  H    8.769041   5.787114   9.548866  10.263256  10.933436
    34  C    9.231649   5.501408   9.592603  10.637829  11.039103
    35  H    9.416083   5.545076   9.926088  11.056370  11.241776
    36  H    8.585022   4.767880   8.608763   9.709835  10.153430
    37  C   10.606337   6.898304  10.657342  11.704142  12.273751
    38  H   10.589376   7.087436  10.476594  11.429375  12.198486
    39  H   11.025834   7.132963  10.734560  11.903699  12.432562
    40  C   11.661904   8.046789  12.052233  13.049203  13.565582
    41  H   11.525038   8.169430  12.208348  13.078804  13.644397
    42  H   12.637262   8.994403  12.817324  13.829406  14.430594
    43  H   11.800640   8.086586  12.348769  13.411964  13.750262
                   16         17         18         19         20
    16  H    0.000000
    17  H    2.828904   0.000000
    18  H    3.308318   2.300854   0.000000
    19  H    4.014925   2.733494   2.466264   0.000000
    20  H    3.862341   2.499964   4.199914   2.827763   0.000000
    21  H    2.836733   3.593338   2.562631   2.531463   4.236906
    22  H    5.121900   5.067283   5.093181   2.974589   3.762631
    23  H    4.667715   4.567295   5.376295   3.380573   2.632579
    24  H    4.395679   5.600404   6.112964   4.753713   4.274069
    25  H    4.512094   5.830537   5.020948   4.277918   5.651058
    26  O    5.157508   6.589483   5.955245   5.027992   6.127997
    27  H    4.959769   6.252218   5.964229   4.742901   5.452833
    28  H    6.130935   7.352594   6.560720   5.492735   6.825918
    29  O    7.480690   8.510081   7.569865   6.394509   7.924091
    30  H    7.669236   8.414336   7.336924   6.112894   7.899262
    31  C    8.303299   9.596754   8.499865   7.610628   9.194489
    32  H    9.284898  10.415887   9.251052   8.272296   9.964730
    33  H    7.992863   9.365763   8.077123   7.494050   9.253074
    34  C    8.520520  10.123282   9.259221   8.375052   9.578499
    35  H    9.066710  10.553662   9.846590   8.720330   9.757360
    36  H    7.613394   9.374939   8.641799   7.835278   8.849828
    37  C    9.502114  11.299170  10.313438   9.669798  10.927871
    38  H    9.143858  11.035234   9.918343   9.532602  10.905323
    39  H    9.770638  11.723674  10.895543  10.245590  11.264395
    40  C   10.834559  12.463562  11.358006  10.633405  12.062786
    41  H   10.824371  12.291881  11.031016  10.346791  12.000052
    42  H   11.583746  13.333877  12.191483  11.592141  13.012150
    43  H   11.284334  12.812617  11.825068  10.886373  12.206217
                   21         22         23         24         25
    21  H    0.000000
    22  H    3.449327   0.000000
    23  H    4.062658   1.781029   0.000000
    24  H    4.078303   2.842421   2.293147   0.000000
    25  H    2.482867   3.152922   4.189910   3.279489   0.000000
    26  O    3.408495   3.338581   4.314207   3.053574   0.981726
    27  H    3.497535   2.686096   3.431269   2.109922   1.553898
    28  H    4.091621   3.605674   4.859748   3.827883   1.683490
    29  O    5.235368   4.405068   5.848168   5.030044   2.983342
    30  H    5.191584   4.332982   5.947614   5.483660   3.250244
    31  C    6.148457   5.797653   7.175469   6.093024   3.852411
    32  H    6.998638   6.426618   7.898351   6.983475   4.794752
    33  H    5.810319   6.077621   7.469607   6.383927   3.705602
    34  C    6.766864   6.326971   7.431451   5.957413   4.317332
    35  H    7.345043   6.384142   7.432370   6.017075   4.868342
    36  H    6.101742   5.843544   6.774921   5.108538   3.659975
    37  C    7.860322   7.793296   8.869988   7.267381   5.501605
    38  H    7.541361   7.955376   9.041179   7.424133   5.340862
    39  H    8.393958   8.262353   9.165431   7.380666   6.020570
    40  C    8.974584   8.718008   9.937819   8.513391   6.638588
    41  H    8.756770   8.599777   9.959983   8.724535   6.534380
    42  H    9.823965   9.744087  10.924736   9.405249   7.527941
    43  H    9.408145   8.744224   9.940165   8.576834   7.002383
                   26         27         28         29         30
    26  O    0.000000
    27  H    1.021545   0.000000
    28  H    1.060376   1.727525   0.000000
    29  O    2.468123   3.014095   1.408742   0.000000
    30  H    2.990686   3.504694   1.988833   0.966328   0.000000
    31  C    3.321522   4.056396   2.404089   1.447017   1.994638
    32  H    4.304363   4.971203   3.312020   2.059326   2.253704
    33  H    3.392822   4.298913   2.647222   2.079325   2.409042
    34  C    3.549372   4.152887   2.886663   2.398222   3.242545
    35  H    4.007411   4.388831   3.299977   2.665004   3.490730
    36  H    2.836523   3.411989   2.467787   2.564806   3.498888
    37  C    4.819026   5.510083   4.257572   3.773769   4.500671
    38  H    4.803048   5.619691   4.357499   4.056171   4.714576
    39  H    5.259786   5.840219   4.840532   4.532869   5.351631
    40  C    5.995163   6.681576   5.257808   4.414276   4.941647
    41  H    6.008813   6.765345   5.186277   4.202063   4.535583
    42  H    6.902927   7.613605   6.233155   5.465756   5.991833
    43  H    6.276788   6.836130   5.480099   4.523280   5.050112
                   31         32         33         34         35
    31  C    0.000000
    32  H    1.090775   0.000000
    33  H    1.094582   1.779656   0.000000
    34  C    1.514544   2.171083   2.164039   0.000000
    35  H    2.137296   2.459562   3.057564   1.095180   0.000000
    36  H    2.131834   3.053240   2.525656   1.094796   1.765603
    37  C    2.527915   2.863552   2.746755   1.529961   2.164922
    38  H    2.781402   3.255667   2.551706   2.155392   3.063901
    39  H    3.454761   3.843978   3.736095   2.141318   2.481540
    40  C    3.063254   2.818674   3.358062   2.557091   2.813925
    41  H    2.816658   2.330445   2.959202   2.887187   3.268201
    42  H    4.083587   3.860854   4.225933   3.499021   3.779145
    43  H    3.363417   2.958653   3.945630   2.776342   2.589152
                   36         37         38         39         40
    36  H    0.000000
    37  C    2.159141   0.000000
    38  H    2.475978   1.095302   0.000000
    39  H    2.446218   1.093258   1.754231   0.000000
    40  C    3.492303   1.527845   2.158844   2.153182   0.000000
    41  H    3.872553   2.184390   2.495571   3.072985   1.093012
    42  H    4.311895   2.171865   2.530377   2.454108   1.092478
    43  H    3.775689   2.172611   3.072319   2.546063   1.094327
                   41         42         43
    41  H    0.000000
    42  H    1.761715   0.000000
    43  H    1.768032   1.767465   0.000000
 Symmetry turned off by external request.
 Stoichiometry    C10H25O8(1+)
 Framework group  C1[X(C10H25O8)]
 Deg. of freedom   123
 Full point group                 C1      NOp   1
 Rotational constants (GHZ):           0.9149299           0.1149713           0.1137938
 Standard basis: 6-311++G(d,p) (5D, 7F)
   571 basis functions,   873 primitive gaussians,   589 cartesian basis functions
    74 alpha electrons       74 beta electrons
       nuclear repulsion energy      1525.1896557031 Hartrees.
 NAtoms=   43 NActive=   43 NUniq=   43 SFac= 1.00D+00 NAtFMM=   60 NAOKFM=F Big=F
 Integral buffers will be    131072 words long.
 Raffenetti 2 integral format.
 Two-electron integral symmetry is turned off.
 ------------------------------------------------------------------------------
 Polarizable Continuum Model (PCM)
 =================================
 Model                : PCM.
 Atomic radii         : SMD-Coulomb.
 Polarization charges : Total charges.
 Charge compensation  : None.
 Solution method      : On-the-fly selection.
 Cavity type          : VdW (van der Waals Surface) (Alpha=1.000).
 Cavity algorithm     : GePol (No added spheres)
                        Default sphere list used, NSphG=   43.
                        Lebedev-Laikov grids with approx.  5.0 points / Ang**2.
                        Smoothing algorithm: York/Karplus (Gamma=1.0000).
                        Polarization charges: spherical gaussians, with
                                              point-specific exponents (IZeta= 3).
                        Self-potential: point-specific (ISelfS= 7).
                        Self-field    : sphere-specific E.n sum rule (ISelfD= 2).
 1st derivatives      : Analytical E(r).r(x)/FMM algorithm (CHGder, D1EAlg=3).
                        Cavity 1st derivative terms included.
 Solvent              : 1-Butanol, Eps=  17.332000 Eps(inf)=   1.958040
 ------------------------------------------------------------------------------
 ------------------------------------------------------------------------------
 Atomic radii for non-electrostatic terms: SMD-CDS.
 ------------------------------------------------------------------------------
 Nuclear repulsion after PCM non-electrostatic terms =     1525.1913320286 Hartrees.
 One-electron integrals computed using PRISM.
 NBasis=   571 RedAO= T EigKep=  2.06D-06  NBF=   571
 NBsUse=   571 1.00D-06 EigRej= -1.00D+00 NBFU=   571
 ExpMin= 3.60D-02 ExpMax= 8.59D+03 ExpMxC= 1.30D+03 IAcc=3 IRadAn=         5 AccDes= 0.00D+00
 Harris functional with IExCor= 1009 and IRadAn=       5 diagonalized for initial guess.
 HarFok:  IExCor= 1009 AccDes= 0.00D+00 IRadAn=         5 IDoV= 1 UseB2=F ITyADJ=14
 ICtDFT=  3500011 ScaDFX=  1.000000  1.000000  1.000000  1.000000
 FoFCou: FMM=F IPFlag=           0 FMFlag=      100000 FMFlg1=           0
         NFxFlg=           0 DoJE=T BraDBF=F KetDBF=T FulRan=T
         wScrn=  0.000000 ICntrl=       500 IOpCl=  0 I1Cent=   200000004 NGrid=           0
         NMat0=    1 NMatS0=      1 NMatT0=    0 NMatD0=    1 NMtDS0=    0 NMtDT0=    0
 Symmetry not used in FoFCou.
 Requested convergence on RMS density matrix=1.00D-08 within 128 cycles.
 Requested convergence on MAX density matrix=1.00D-06.
 Requested convergence on             energy=1.00D-06.
 No special actions if energy rises.
 Inv3:  Mode=1 IEnd=    22064832.
 Iteration    1 A*A^-1 deviation from unit magnitude is 3.77D-15 for   2701.
 Iteration    1 A*A^-1 deviation from orthogonality  is 2.13D-15 for   2507    603.
 Iteration    1 A^-1*A deviation from unit magnitude is 3.77D-15 for   2701.
 Iteration    1 A^-1*A deviation from orthogonality  is 1.94D-15 for   2020   1913.
 Error on total polarization charges =  0.06195
 SCF Done:  E(RM062X) =  -997.691548499     A.U. after   13 cycles
            NFock= 13  Conv=0.27D-08     -V/T= 2.0037
 SMD-CDS (non-electrostatic) energy       (kcal/mol) =       1.05
 (included in total energy above)

 **********************************************************************

            Population analysis using the SCF density.

 **********************************************************************

 Alpha  occ. eigenvalues --  -19.69172 -19.66746 -19.66598 -19.65193 -19.65077
 Alpha  occ. eigenvalues --  -19.64863 -19.64390 -19.63272 -10.66234 -10.60924
 Alpha  occ. eigenvalues --  -10.60620 -10.60601 -10.60348 -10.59486 -10.59384
 Alpha  occ. eigenvalues --  -10.53326 -10.53112 -10.51937  -1.23408  -1.22140
 Alpha  occ. eigenvalues --   -1.18493  -1.17740  -1.17038  -1.16870  -1.15681
 Alpha  occ. eigenvalues --   -1.14715  -0.90137  -0.89664  -0.87692  -0.82171
 Alpha  occ. eigenvalues --   -0.81760  -0.75648  -0.73630  -0.71358  -0.69423
 Alpha  occ. eigenvalues --   -0.68472  -0.66527  -0.65498  -0.65072  -0.64063
 Alpha  occ. eigenvalues --   -0.62275  -0.61384  -0.60595  -0.59517  -0.56831
 Alpha  occ. eigenvalues --   -0.55601  -0.55242  -0.54262  -0.53370  -0.52598
 Alpha  occ. eigenvalues --   -0.51991  -0.51043  -0.50746  -0.49595  -0.49281
 Alpha  occ. eigenvalues --   -0.48602  -0.47659  -0.47437  -0.45529  -0.45435
 Alpha  occ. eigenvalues --   -0.44255  -0.43848  -0.43287  -0.42678  -0.40696
 Alpha  occ. eigenvalues --   -0.39981  -0.39559  -0.39394  -0.38760  -0.38468
 Alpha  occ. eigenvalues --   -0.38028  -0.37448  -0.36364  -0.33909
 Alpha virt. eigenvalues --   -0.00967   0.00021   0.00406   0.00589   0.00920
 Alpha virt. eigenvalues --    0.01351   0.01687   0.02408   0.02539   0.03103
 Alpha virt. eigenvalues --    0.03287   0.03457   0.04188   0.04363   0.04885
 Alpha virt. eigenvalues --    0.04960   0.05322   0.06073   0.06326   0.06858
 Alpha virt. eigenvalues --    0.07346   0.07715   0.08013   0.08571   0.08739
 Alpha virt. eigenvalues --    0.09218   0.09738   0.10191   0.10379   0.10797
 Alpha virt. eigenvalues --    0.11490   0.11523   0.11815   0.12053   0.12175
 Alpha virt. eigenvalues --    0.12328   0.12445   0.12860   0.12913   0.13438
 Alpha virt. eigenvalues --    0.13467   0.14169   0.14199   0.14624   0.14932
 Alpha virt. eigenvalues --    0.14973   0.15240   0.15575   0.15687   0.16087
 Alpha virt. eigenvalues --    0.16256   0.16582   0.16676   0.17076   0.17159
 Alpha virt. eigenvalues --    0.17526   0.17917   0.18257   0.18627   0.19024
 Alpha virt. eigenvalues --    0.19320   0.19561   0.20517   0.20820   0.21036
 Alpha virt. eigenvalues --    0.21348   0.21638   0.21901   0.22189   0.22596
 Alpha virt. eigenvalues --    0.23122   0.23289   0.23417   0.24004   0.24160
 Alpha virt. eigenvalues --    0.24843   0.25341   0.25523   0.25766   0.26092
 Alpha virt. eigenvalues --    0.26970   0.27109   0.27372   0.27461   0.27939
 Alpha virt. eigenvalues --    0.28292   0.28547   0.28884   0.28977   0.29528
 Alpha virt. eigenvalues --    0.29749   0.29881   0.30482   0.30911   0.31307
 Alpha virt. eigenvalues --    0.31431   0.31777   0.32011   0.32511   0.32723
 Alpha virt. eigenvalues --    0.32996   0.33419   0.33564   0.34309   0.34362
 Alpha virt. eigenvalues --    0.34787   0.34909   0.34983   0.35598   0.35699
 Alpha virt. eigenvalues --    0.35903   0.36533   0.36703   0.36959   0.37154
 Alpha virt. eigenvalues --    0.37460   0.38036   0.38168   0.38281   0.38856
 Alpha virt. eigenvalues --    0.39484   0.40115   0.40496   0.41001   0.41418
 Alpha virt. eigenvalues --    0.41571   0.42319   0.42603   0.43292   0.44770
 Alpha virt. eigenvalues --    0.45289   0.46729   0.46862   0.48242   0.48506
 Alpha virt. eigenvalues --    0.49305   0.50262   0.50782   0.51210   0.52706
 Alpha virt. eigenvalues --    0.53335   0.54188   0.54943   0.55298   0.56921
 Alpha virt. eigenvalues --    0.57103   0.58027   0.59080   0.60449   0.61035
 Alpha virt. eigenvalues --    0.61761   0.62603   0.62758   0.63417   0.63872
 Alpha virt. eigenvalues --    0.64662   0.65580   0.66517   0.67325   0.67482
 Alpha virt. eigenvalues --    0.67609   0.68408   0.69239   0.69642   0.70544
 Alpha virt. eigenvalues --    0.70734   0.71208   0.71752   0.72418   0.73084
 Alpha virt. eigenvalues --    0.73457   0.73951   0.74201   0.74917   0.75321
 Alpha virt. eigenvalues --    0.75812   0.76127   0.76400   0.78347   0.78810
 Alpha virt. eigenvalues --    0.79159   0.79743   0.79841   0.80616   0.81879
 Alpha virt. eigenvalues --    0.82508   0.82893   0.83246   0.84242   0.85342
 Alpha virt. eigenvalues --    0.85905   0.87858   0.88950   0.93122   0.96829
 Alpha virt. eigenvalues --    0.98230   0.98670   1.00185   1.00505   1.04035
 Alpha virt. eigenvalues --    1.05601   1.06274   1.06648   1.07647   1.09353
 Alpha virt. eigenvalues --    1.09463   1.10185   1.11479   1.12740   1.13396
 Alpha virt. eigenvalues --    1.14855   1.17248   1.17945   1.18526   1.19442
 Alpha virt. eigenvalues --    1.20180   1.20759   1.21252   1.22103   1.22768
 Alpha virt. eigenvalues --    1.24954   1.25331   1.25824   1.27673   1.27965
 Alpha virt. eigenvalues --    1.28621   1.29078   1.29759   1.30257   1.31210
 Alpha virt. eigenvalues --    1.32272   1.33471   1.35033   1.35550   1.36707
 Alpha virt. eigenvalues --    1.38072   1.38833   1.40576   1.41131   1.42753
 Alpha virt. eigenvalues --    1.43677   1.46362   1.46498   1.48044   1.48542
 Alpha virt. eigenvalues --    1.50668   1.51691   1.52746   1.53114   1.54243
 Alpha virt. eigenvalues --    1.55157   1.56103   1.56351   1.57363   1.58059
 Alpha virt. eigenvalues --    1.59539   1.60328   1.60623   1.60926   1.61541
 Alpha virt. eigenvalues --    1.61972   1.63163   1.63534   1.64113   1.64425
 Alpha virt. eigenvalues --    1.65038   1.65421   1.65998   1.66764   1.68072
 Alpha virt. eigenvalues --    1.68250   1.68933   1.69249   1.69878   1.70962
 Alpha virt. eigenvalues --    1.71234   1.72333   1.72891   1.73772   1.74900
 Alpha virt. eigenvalues --    1.75023   1.75746   1.76665   1.77292   1.77876
 Alpha virt. eigenvalues --    1.78573   1.79508   1.80255   1.80819   1.82024
 Alpha virt. eigenvalues --    1.82793   1.83255   1.83931   1.85727   1.87154
 Alpha virt. eigenvalues --    1.87775   1.88891   1.89227   1.92337   1.92922
 Alpha virt. eigenvalues --    1.94453   1.95696   1.95815   1.97474   1.98703
 Alpha virt. eigenvalues --    2.00063   2.00998   2.01587   2.01852   2.04940
 Alpha virt. eigenvalues --    2.05949   2.06700   2.07681   2.08506   2.09417
 Alpha virt. eigenvalues --    2.09747   2.09890   2.13287   2.14000   2.14425
 Alpha virt. eigenvalues --    2.15842   2.16364   2.17952   2.18686   2.20264
 Alpha virt. eigenvalues --    2.21669   2.23311   2.23908   2.25464   2.26228
 Alpha virt. eigenvalues --    2.28095   2.29172   2.29641   2.31911   2.33830
 Alpha virt. eigenvalues --    2.34238   2.35444   2.36119   2.37334   2.38737
 Alpha virt. eigenvalues --    2.41003   2.42092   2.45406   2.49938   2.51390
 Alpha virt. eigenvalues --    2.53648   2.54592   2.56246   2.57163   2.57399
 Alpha virt. eigenvalues --    2.57974   2.58211   2.59823   2.61110   2.61459
 Alpha virt. eigenvalues --    2.61764   2.62071   2.63435   2.64536   2.65847
 Alpha virt. eigenvalues --    2.66977   2.68674   2.68880   2.71446   2.72080
 Alpha virt. eigenvalues --    2.72761   2.74133   2.75813   2.77509   2.78499
 Alpha virt. eigenvalues --    2.79318   2.79560   2.81098   2.82375   2.84132
 Alpha virt. eigenvalues --    2.86530   2.88590   2.89363   2.89565   2.92246
 Alpha virt. eigenvalues --    2.93142   2.93592   2.94643   2.96103   2.97127
 Alpha virt. eigenvalues --    2.97711   2.99051   2.99704   3.02940   3.03059
 Alpha virt. eigenvalues --    3.05209   3.07233   3.09395   3.10318   3.11345
 Alpha virt. eigenvalues --    3.14519   3.15583   3.17687   3.18197   3.20078
 Alpha virt. eigenvalues --    3.20748   3.22581   3.23228   3.25128   3.25450
 Alpha virt. eigenvalues --    3.25820   3.26420   3.27811   3.29526   3.30614
 Alpha virt. eigenvalues --    3.31932   3.33349   3.34448   3.36115   3.36785
 Alpha virt. eigenvalues --    3.37769   3.39108   3.41141   3.42390   3.43774
 Alpha virt. eigenvalues --    3.44145   3.49053   3.54514   3.61451   3.63969
 Alpha virt. eigenvalues --    3.82000   3.83842   3.85095   3.86247   3.86741
 Alpha virt. eigenvalues --    3.88399   3.89844   3.90528   3.91211   3.91675
 Alpha virt. eigenvalues --    3.93588   3.93686   3.96690   3.98426   3.99465
 Alpha virt. eigenvalues --    4.00194   4.02487   4.04816   4.06899   4.07427
 Alpha virt. eigenvalues --    4.11345   4.15437   4.17650   4.22082   4.25520
 Alpha virt. eigenvalues --    4.27274   4.28621   4.34634   4.39317   4.43545
 Alpha virt. eigenvalues --    5.16958   5.18356   5.20749   5.23289   5.24349
 Alpha virt. eigenvalues --    5.26569   5.28823   5.32831   5.46219   5.49238
 Alpha virt. eigenvalues --    5.52380   5.53707   5.56897   5.58179   5.61940
 Alpha virt. eigenvalues --    5.70984   5.71374   5.72221   5.75666   5.76885
 Alpha virt. eigenvalues --    5.80490   5.81720   5.92917   5.94045  23.79891
 Alpha virt. eigenvalues --   23.87664  23.91520  23.92404  23.93937  23.95510
 Alpha virt. eigenvalues --   23.96551  23.99918  24.01958  24.07233  49.96861
 Alpha virt. eigenvalues --   50.01677  50.02013  50.03389  50.06171  50.08276
 Alpha virt. eigenvalues --   50.11265  50.13580
          Condensed to atoms (all electrons):
               1          2          3          4          5          6
     1  C   10.195736  -3.201156   2.074326  -2.875698   0.299274  -1.206324
     2  C   -3.201156  10.530617  -3.512555   2.603361  -0.190104   0.423551
     3  C    2.074326  -3.512555  12.145747  -5.027326   0.166855   0.022272
     4  C   -2.875698   2.603361  -5.027326  15.004853  -0.038165   0.252379
     5  O    0.299274  -0.190104   0.166855  -0.038165   8.163143  -0.103997
     6  C   -1.206324   0.423551   0.022272   0.252379  -0.103997   6.279049
     7  C    0.105335  -0.450744  -0.250210  -2.834384  -0.203219  -0.031799
     8  O    0.010064  -0.106143   0.138127  -0.113730   0.018736   0.118637
     9  O   -0.219248   0.455896  -0.121889  -0.137238   0.007536   0.011924
    10  O    0.023861   0.016114  -0.010864  -0.029653  -0.028503   0.006060
    11  O    0.010055  -0.158346   0.495463  -0.239314   0.003245  -0.004210
    12  O    0.003953  -0.030494   0.048760  -0.143539  -0.014154  -0.007044
    13  H   -0.082486  -0.006493   0.023813  -0.025395  -0.020633   0.455993
    14  H   -0.019783  -0.008312   0.004754  -0.019368   0.020859   0.431093
    15  H   -0.065016   0.017200  -0.002631   0.007130   0.002658   0.067716
    16  H    0.472403  -0.139258   0.040652  -0.017421  -0.032231  -0.069519
    17  H    0.055401   0.300192   0.059087  -0.137792  -0.003736  -0.044344
    18  H   -0.063424   0.102155  -0.094727   0.087538  -0.000794  -0.000379
    19  H    0.032612  -0.073503   0.428672  -0.063114   0.022389   0.012607
    20  H    0.075979   0.003833  -0.031434   0.045947   0.003447  -0.031360
    21  H    0.010930  -0.030413   0.010090   0.037914  -0.008781  -0.009910
    22  H   -0.013137  -0.009870  -0.022262  -0.066209   0.015383   0.005522
    23  H    0.033355  -0.022002  -0.028172  -0.071904  -0.021990  -0.019749
    24  H    0.006675  -0.002060  -0.006635   0.015823   0.013960  -0.000903
    25  H   -0.019345   0.013354  -0.054519  -0.033664  -0.007019   0.001874
    26  O    0.010903  -0.000852  -0.022156   0.221317  -0.001529  -0.000453
    27  H   -0.003846  -0.004057  -0.030466  -0.241416  -0.002615   0.003213
    28  H   -0.007334   0.004738   0.040123   0.030436  -0.001610  -0.000800
    29  O    0.000107  -0.000155   0.001312   0.012122   0.000007  -0.000012
    30  H    0.000107   0.000216  -0.001891  -0.001856  -0.000001  -0.000042
    31  C    0.000584  -0.000728  -0.004146  -0.020058   0.000314   0.000086
    32  H    0.000015  -0.000029   0.000323   0.000709  -0.000010  -0.000001
    33  H    0.000037   0.000008  -0.000426  -0.000297   0.000047   0.000002
    34  C   -0.000034   0.000088   0.000088   0.004208   0.000034   0.000000
    35  H    0.000051   0.000023  -0.000177   0.000799   0.000027   0.000001
    36  H    0.000145  -0.000094   0.002102   0.005553  -0.000095  -0.000095
    37  C   -0.000013  -0.000066   0.000154  -0.001576   0.000002   0.000002
    38  H    0.000000  -0.000002   0.000053   0.000363  -0.000004  -0.000001
    39  H   -0.000001   0.000003  -0.000023  -0.000148   0.000003   0.000002
    40  C    0.000000  -0.000002  -0.000040  -0.000609   0.000002   0.000000
    41  H   -0.000001  -0.000000  -0.000015  -0.000129   0.000001   0.000000
    42  H    0.000000  -0.000000   0.000000  -0.000009   0.000000   0.000000
    43  H   -0.000001   0.000000   0.000004   0.000034  -0.000000  -0.000000
               7          8          9         10         11         12
     1  C    0.105335   0.010064  -0.219248   0.023861   0.010055   0.003953
     2  C   -0.450744  -0.106143   0.455896   0.016114  -0.158346  -0.030494
     3  C   -0.250210   0.138127  -0.121889  -0.010864   0.495463   0.048760
     4  C   -2.834384  -0.113730  -0.137238  -0.029653  -0.239314  -0.143539
     5  O   -0.203219   0.018736   0.007536  -0.028503   0.003245  -0.014154
     6  C   -0.031799   0.118637   0.011924   0.006060  -0.004210  -0.007044
     7  C    9.478873   0.000409   0.037364  -0.187695  -0.033394   0.075838
     8  O    0.000409   8.278377   0.004267   0.002810  -0.013358  -0.001255
     9  O    0.037364   0.004267   8.002793   0.016414   0.021807   0.000036
    10  O   -0.187695   0.002810   0.016414   8.197172   0.024606   0.028405
    11  O   -0.033394  -0.013358   0.021807   0.024606   7.898616   0.000796
    12  O    0.075838  -0.001255   0.000036   0.028405   0.000796   8.165591
    13  H   -0.005102  -0.051871  -0.001677   0.002067   0.001917   0.000876
    14  H    0.005877  -0.069699  -0.001843  -0.001449  -0.000693  -0.000524
    15  H   -0.000715   0.209329  -0.000004  -0.000052   0.001258  -0.000004
    16  H    0.003566   0.010256  -0.005265   0.000971  -0.001606  -0.000690
    17  H    0.001371   0.006643  -0.002498   0.003259  -0.004616   0.000445
    18  H    0.015279   0.000191   0.280136  -0.007610   0.002937  -0.000168
    19  H   -0.099323   0.000219  -0.025756   0.014049  -0.060973  -0.004083
    20  H   -0.044576  -0.032944  -0.001482  -0.001936   0.285025  -0.000843
    21  H    0.003693   0.000544  -0.008370   0.238072  -0.000296   0.006930
    22  H    0.466086   0.001413  -0.000440  -0.005765  -0.012099  -0.062111
    23  H    0.422259  -0.001470   0.000492   0.012838   0.031388  -0.000639
    24  H   -0.008849  -0.000004  -0.000231  -0.006458  -0.000593   0.265599
    25  H    0.069310  -0.000183  -0.001220   0.004961  -0.001415  -0.002548
    26  O   -0.189370  -0.000031   0.001236  -0.011351  -0.000100  -0.027925
    27  H    0.239459  -0.000095  -0.000603   0.010293  -0.000694   0.026601
    28  H   -0.031700  -0.000000  -0.000089   0.009309   0.000835   0.026242
    29  O   -0.003586  -0.000000   0.000015  -0.003562  -0.000000  -0.003345
    30  H    0.003574  -0.000002   0.000031  -0.000970   0.000001  -0.000873
    31  C    0.017597   0.000000  -0.000029  -0.000537  -0.000007   0.000091
    32  H   -0.000127  -0.000000   0.000000  -0.000110   0.000001   0.000080
    33  H   -0.000054   0.000000   0.000003   0.000203  -0.000003  -0.000133
    34  C   -0.008278   0.000001   0.000002  -0.000257  -0.000005  -0.001333
    35  H   -0.001081  -0.000000   0.000001  -0.000102   0.000001   0.000066
    36  H    0.000134  -0.000000   0.000016  -0.000649  -0.000003  -0.003193
    37  C    0.001876   0.000000   0.000001   0.000562  -0.000001  -0.000460
    38  H   -0.000251   0.000000   0.000000  -0.000056   0.000000  -0.000040
    39  H    0.000011  -0.000000  -0.000000   0.000026  -0.000000   0.000015
    40  C    0.000462   0.000000  -0.000000   0.000031  -0.000000  -0.000001
    41  H    0.000108  -0.000000  -0.000000   0.000011  -0.000000  -0.000003
    42  H    0.000012   0.000000   0.000000   0.000001  -0.000000  -0.000002
    43  H   -0.000029   0.000000  -0.000000  -0.000003   0.000000   0.000002
              13         14         15         16         17         18
     1  C   -0.082486  -0.019783  -0.065016   0.472403   0.055401  -0.063424
     2  C   -0.006493  -0.008312   0.017200  -0.139258   0.300192   0.102155
     3  C    0.023813   0.004754  -0.002631   0.040652   0.059087  -0.094727
     4  C   -0.025395  -0.019368   0.007130  -0.017421  -0.137792   0.087538
     5  O   -0.020633   0.020859   0.002658  -0.032231  -0.003736  -0.000794
     6  C    0.455993   0.431093   0.067716  -0.069519  -0.044344  -0.000379
     7  C   -0.005102   0.005877  -0.000715   0.003566   0.001371   0.015279
     8  O   -0.051871  -0.069699   0.209329   0.010256   0.006643   0.000191
     9  O   -0.001677  -0.001843  -0.000004  -0.005265  -0.002498   0.280136
    10  O    0.002067  -0.001449  -0.000052   0.000971   0.003259  -0.007610
    11  O    0.001917  -0.000693   0.001258  -0.001606  -0.004616   0.002937
    12  O    0.000876  -0.000524  -0.000004  -0.000690   0.000445  -0.000168
    13  H    0.543166  -0.052698   0.003112  -0.005112   0.004009  -0.000761
    14  H   -0.052698   0.522385  -0.009195  -0.005042  -0.011843   0.000944
    15  H    0.003112  -0.009195   0.396333  -0.001231  -0.002603  -0.000119
    16  H   -0.005112  -0.005042  -0.001231   0.422940   0.006947   0.000023
    17  H    0.004009  -0.011843  -0.002603   0.006947   0.472550  -0.022262
    18  H   -0.000761   0.000944  -0.000119   0.000023  -0.022262   0.385078
    19  H    0.001132  -0.000786   0.000361   0.003818  -0.005340  -0.007379
    20  H   -0.005233   0.003054   0.001519   0.001455  -0.011803   0.001578
    21  H   -0.000510   0.000187  -0.000069   0.007096   0.004294  -0.008112
    22  H    0.000065   0.000309   0.000132  -0.001035  -0.002285   0.001047
    23  H    0.000548  -0.000980  -0.001537   0.001418   0.004579  -0.000758
    24  H   -0.000992   0.000065   0.000075   0.000209  -0.000254   0.000013
    25  H   -0.000284   0.000276   0.000037   0.001022  -0.000058   0.000124
    26  O    0.000096  -0.000043   0.000003  -0.000826  -0.000333   0.000220
    27  H    0.000234   0.000338   0.000004   0.000904  -0.000219   0.000098
    28  H    0.000137  -0.000189  -0.000005  -0.000299   0.000368  -0.000337
    29  O   -0.000000   0.000000   0.000000   0.000020  -0.000003   0.000001
    30  H   -0.000004   0.000001  -0.000000   0.000035   0.000009   0.000008
    31  C   -0.000008   0.000008  -0.000000   0.000077  -0.000017   0.000020
    32  H    0.000000  -0.000000  -0.000000   0.000000   0.000001  -0.000000
    33  H   -0.000001   0.000000   0.000000  -0.000027  -0.000010   0.000018
    34  C   -0.000002   0.000000   0.000000  -0.000025  -0.000004  -0.000005
    35  H   -0.000002   0.000000  -0.000000  -0.000001  -0.000000   0.000000
    36  H    0.000001  -0.000003   0.000000  -0.000007   0.000005   0.000009
    37  C    0.000001   0.000000   0.000000  -0.000006  -0.000002   0.000002
    38  H    0.000000  -0.000000  -0.000000   0.000003   0.000000  -0.000001
    39  H    0.000000   0.000000   0.000000  -0.000001  -0.000000  -0.000000
    40  C   -0.000000   0.000000  -0.000000   0.000001  -0.000000   0.000000
    41  H   -0.000000   0.000000   0.000000   0.000000  -0.000000  -0.000000
    42  H   -0.000000   0.000000   0.000000  -0.000000  -0.000000   0.000000
    43  H    0.000000  -0.000000   0.000000   0.000000   0.000000  -0.000000
              19         20         21         22         23         24
     1  C    0.032612   0.075979   0.010930  -0.013137   0.033355   0.006675
     2  C   -0.073503   0.003833  -0.030413  -0.009870  -0.022002  -0.002060
     3  C    0.428672  -0.031434   0.010090  -0.022262  -0.028172  -0.006635
     4  C   -0.063114   0.045947   0.037914  -0.066209  -0.071904   0.015823
     5  O    0.022389   0.003447  -0.008781   0.015383  -0.021990   0.013960
     6  C    0.012607  -0.031360  -0.009910   0.005522  -0.019749  -0.000903
     7  C   -0.099323  -0.044576   0.003693   0.466086   0.422259  -0.008849
     8  O    0.000219  -0.032944   0.000544   0.001413  -0.001470  -0.000004
     9  O   -0.025756  -0.001482  -0.008370  -0.000440   0.000492  -0.000231
    10  O    0.014049  -0.001936   0.238072  -0.005765   0.012838  -0.006458
    11  O   -0.060973   0.285025  -0.000296  -0.012099   0.031388  -0.000593
    12  O   -0.004083  -0.000843   0.006930  -0.062111  -0.000639   0.265599
    13  H    0.001132  -0.005233  -0.000510   0.000065   0.000548  -0.000992
    14  H   -0.000786   0.003054   0.000187   0.000309  -0.000980   0.000065
    15  H    0.000361   0.001519  -0.000069   0.000132  -0.001537   0.000075
    16  H    0.003818   0.001455   0.007096  -0.001035   0.001418   0.000209
    17  H   -0.005340  -0.011803   0.004294  -0.002285   0.004579  -0.000254
    18  H   -0.007379   0.001578  -0.008112   0.001047  -0.000758   0.000013
    19  H    0.474687   0.013000   0.004245   0.000849   0.003313  -0.000014
    20  H    0.013000   0.383287  -0.000814   0.000619  -0.003198   0.000856
    21  H    0.004245  -0.000814   0.373998  -0.001305   0.001472   0.000191
    22  H    0.000849   0.000619  -0.001305   0.430581  -0.028731   0.012506
    23  H    0.003313  -0.003198   0.001472  -0.028731   0.478711  -0.021458
    24  H   -0.000014   0.000856   0.000191   0.012506  -0.021458   0.377967
    25  H    0.005925  -0.000076   0.004161   0.004614   0.001287   0.002829
    26  O   -0.002611   0.000600  -0.015230   0.005759  -0.005559   0.001901
    27  H    0.002904  -0.000846  -0.000114   0.001841   0.006908  -0.014508
    28  H   -0.002703  -0.000145   0.003272  -0.014795   0.001897  -0.003636
    29  O    0.000071   0.000006   0.000671  -0.002901  -0.000115   0.000031
    30  H    0.000048   0.000003  -0.000096  -0.000956   0.000240  -0.000026
    31  C    0.000433  -0.000011  -0.000786   0.003140   0.000228  -0.000814
    32  H    0.000007  -0.000001   0.000071  -0.000117  -0.000001  -0.000051
    33  H   -0.000109   0.000004  -0.000227   0.000153  -0.000062   0.000121
    34  C   -0.000075   0.000006   0.000381   0.000940  -0.000359   0.000716
    35  H   -0.000010   0.000002   0.000014  -0.000034  -0.000022  -0.000082
    36  H   -0.000011   0.000006   0.000150  -0.000313  -0.000269   0.000278
    37  C    0.000039  -0.000002  -0.000135   0.000304   0.000020   0.000388
    38  H    0.000001   0.000000   0.000040  -0.000011  -0.000003  -0.000007
    39  H   -0.000000  -0.000000  -0.000005   0.000014  -0.000001  -0.000009
    40  C    0.000003  -0.000000  -0.000050   0.000047   0.000009  -0.000069
    41  H    0.000002  -0.000000  -0.000006  -0.000001   0.000003  -0.000003
    42  H    0.000000  -0.000000  -0.000001   0.000004  -0.000000   0.000000
    43  H   -0.000000   0.000000   0.000001  -0.000006   0.000000   0.000007
              25         26         27         28         29         30
     1  C   -0.019345   0.010903  -0.003846  -0.007334   0.000107   0.000107
     2  C    0.013354  -0.000852  -0.004057   0.004738  -0.000155   0.000216
     3  C   -0.054519  -0.022156  -0.030466   0.040123   0.001312  -0.001891
     4  C   -0.033664   0.221317  -0.241416   0.030436   0.012122  -0.001856
     5  O   -0.007019  -0.001529  -0.002615  -0.001610   0.000007  -0.000001
     6  C    0.001874  -0.000453   0.003213  -0.000800  -0.000012  -0.000042
     7  C    0.069310  -0.189370   0.239459  -0.031700  -0.003586   0.003574
     8  O   -0.000183  -0.000031  -0.000095  -0.000000  -0.000000  -0.000002
     9  O   -0.001220   0.001236  -0.000603  -0.000089   0.000015   0.000031
    10  O    0.004961  -0.011351   0.010293   0.009309  -0.003562  -0.000970
    11  O   -0.001415  -0.000100  -0.000694   0.000835  -0.000000   0.000001
    12  O   -0.002548  -0.027925   0.026601   0.026242  -0.003345  -0.000873
    13  H   -0.000284   0.000096   0.000234   0.000137  -0.000000  -0.000004
    14  H    0.000276  -0.000043   0.000338  -0.000189   0.000000   0.000001
    15  H    0.000037   0.000003   0.000004  -0.000005   0.000000  -0.000000
    16  H    0.001022  -0.000826   0.000904  -0.000299   0.000020   0.000035
    17  H   -0.000058  -0.000333  -0.000219   0.000368  -0.000003   0.000009
    18  H    0.000124   0.000220   0.000098  -0.000337   0.000001   0.000008
    19  H    0.005925  -0.002611   0.002904  -0.002703   0.000071   0.000048
    20  H   -0.000076   0.000600  -0.000846  -0.000145   0.000006   0.000003
    21  H    0.004161  -0.015230  -0.000114   0.003272   0.000671  -0.000096
    22  H    0.004614   0.005759   0.001841  -0.014795  -0.002901  -0.000956
    23  H    0.001287  -0.005559   0.006908   0.001897  -0.000115   0.000240
    24  H    0.002829   0.001901  -0.014508  -0.003636   0.000031  -0.000026
    25  H    0.343947   0.197700   0.036736   0.005123  -0.025887  -0.000422
    26  O    0.197700   8.536744   0.070065  -0.227295   0.079293   0.016968
    27  H    0.036736   0.070065   0.435523  -0.008446  -0.019739   0.000761
    28  H    0.005123  -0.227295  -0.008446   0.747920  -0.023924  -0.029772
    29  O   -0.025887   0.079293  -0.019739  -0.023924   8.255808   0.302905
    30  H   -0.000422   0.016968   0.000761  -0.029772   0.302905   0.357623
    31  C    0.026903  -0.006174   0.041164  -0.112033   0.030973   0.021929
    32  H   -0.001511  -0.005512   0.000115   0.013096  -0.048016  -0.011467
    33  H   -0.004045   0.012548  -0.003202  -0.004561  -0.060514   0.003861
    34  C   -0.009337   0.003030  -0.001782   0.052963  -0.112223  -0.012235
    35  H   -0.000236   0.007578   0.001660  -0.015526   0.002177   0.003714
    36  H   -0.005971  -0.011467  -0.018077   0.048993   0.010571  -0.002707
    37  C    0.004397  -0.005547  -0.009819  -0.005575   0.000955  -0.009240
    38  H   -0.000762  -0.000568  -0.000063   0.005890   0.002782  -0.001152
    39  H    0.000255   0.000103   0.000428  -0.000822  -0.003109   0.000299
    40  C    0.001801  -0.000890   0.003740  -0.017831   0.000641   0.002149
    41  H    0.000363   0.000078   0.000187  -0.003441  -0.000533   0.001984
    42  H    0.000072   0.000026  -0.000039  -0.000891  -0.000085   0.000038
    43  H   -0.000152  -0.000250  -0.000269   0.003310   0.000540  -0.001118
              31         32         33         34         35         36
     1  C    0.000584   0.000015   0.000037  -0.000034   0.000051   0.000145
     2  C   -0.000728  -0.000029   0.000008   0.000088   0.000023  -0.000094
     3  C   -0.004146   0.000323  -0.000426   0.000088  -0.000177   0.002102
     4  C   -0.020058   0.000709  -0.000297   0.004208   0.000799   0.005553
     5  O    0.000314  -0.000010   0.000047   0.000034   0.000027  -0.000095
     6  C    0.000086  -0.000001   0.000002   0.000000   0.000001  -0.000095
     7  C    0.017597  -0.000127  -0.000054  -0.008278  -0.001081   0.000134
     8  O    0.000000  -0.000000   0.000000   0.000001  -0.000000  -0.000000
     9  O   -0.000029   0.000000   0.000003   0.000002   0.000001   0.000016
    10  O   -0.000537  -0.000110   0.000203  -0.000257  -0.000102  -0.000649
    11  O   -0.000007   0.000001  -0.000003  -0.000005   0.000001  -0.000003
    12  O    0.000091   0.000080  -0.000133  -0.001333   0.000066  -0.003193
    13  H   -0.000008   0.000000  -0.000001  -0.000002  -0.000002   0.000001
    14  H    0.000008  -0.000000   0.000000   0.000000   0.000000  -0.000003
    15  H   -0.000000  -0.000000   0.000000   0.000000  -0.000000   0.000000
    16  H    0.000077   0.000000  -0.000027  -0.000025  -0.000001  -0.000007
    17  H   -0.000017   0.000001  -0.000010  -0.000004  -0.000000   0.000005
    18  H    0.000020  -0.000000   0.000018  -0.000005   0.000000   0.000009
    19  H    0.000433   0.000007  -0.000109  -0.000075  -0.000010  -0.000011
    20  H   -0.000011  -0.000001   0.000004   0.000006   0.000002   0.000006
    21  H   -0.000786   0.000071  -0.000227   0.000381   0.000014   0.000150
    22  H    0.003140  -0.000117   0.000153   0.000940  -0.000034  -0.000313
    23  H    0.000228  -0.000001  -0.000062  -0.000359  -0.000022  -0.000269
    24  H   -0.000814  -0.000051   0.000121   0.000716  -0.000082   0.000278
    25  H    0.026903  -0.001511  -0.004045  -0.009337  -0.000236  -0.005971
    26  O   -0.006174  -0.005512   0.012548   0.003030   0.007578  -0.011467
    27  H    0.041164   0.000115  -0.003202  -0.001782   0.001660  -0.018077
    28  H   -0.112033   0.013096  -0.004561   0.052963  -0.015526   0.048993
    29  O    0.030973  -0.048016  -0.060514  -0.112223   0.002177   0.010571
    30  H    0.021929  -0.011467   0.003861  -0.012235   0.003714  -0.002707
    31  C    5.930808   0.457493   0.372304  -0.196902  -0.100745  -0.069852
    32  H    0.457493   0.522129  -0.047230  -0.082010  -0.013371   0.011882
    33  H    0.372304  -0.047230   0.515421   0.019671   0.005097  -0.007344
    34  C   -0.196902  -0.082010   0.019671   5.907223   0.540119   0.381677
    35  H   -0.100745  -0.013371   0.005097   0.540119   0.500915  -0.047413
    36  H   -0.069852   0.011882  -0.007344   0.381677  -0.047413   0.574914
    37  C   -0.086007  -0.000947  -0.013949  -0.124410  -0.056454   0.010410
    38  H   -0.065360   0.003741  -0.001046   0.011778   0.006659  -0.009395
    39  H    0.010762  -0.002840   0.000248  -0.073632  -0.006224  -0.007672
    40  C    0.208574   0.003535  -0.017748  -0.093635  -0.037480  -0.024661
    41  H    0.040513  -0.009105  -0.003692  -0.079266   0.003003   0.002252
    42  H    0.003471   0.000850  -0.000665   0.012130  -0.002142  -0.001074
    43  H   -0.035817   0.003017   0.001534   0.009544  -0.003389   0.002160
              37         38         39         40         41         42
     1  C   -0.000013   0.000000  -0.000001   0.000000  -0.000001   0.000000
     2  C   -0.000066  -0.000002   0.000003  -0.000002  -0.000000  -0.000000
     3  C    0.000154   0.000053  -0.000023  -0.000040  -0.000015   0.000000
     4  C   -0.001576   0.000363  -0.000148  -0.000609  -0.000129  -0.000009
     5  O    0.000002  -0.000004   0.000003   0.000002   0.000001   0.000000
     6  C    0.000002  -0.000001   0.000002   0.000000   0.000000   0.000000
     7  C    0.001876  -0.000251   0.000011   0.000462   0.000108   0.000012
     8  O    0.000000   0.000000  -0.000000   0.000000  -0.000000   0.000000
     9  O    0.000001   0.000000  -0.000000  -0.000000  -0.000000   0.000000
    10  O    0.000562  -0.000056   0.000026   0.000031   0.000011   0.000001
    11  O   -0.000001   0.000000  -0.000000  -0.000000  -0.000000  -0.000000
    12  O   -0.000460  -0.000040   0.000015  -0.000001  -0.000003  -0.000002
    13  H    0.000001   0.000000   0.000000  -0.000000  -0.000000  -0.000000
    14  H    0.000000  -0.000000   0.000000   0.000000   0.000000   0.000000
    15  H    0.000000  -0.000000   0.000000  -0.000000   0.000000   0.000000
    16  H   -0.000006   0.000003  -0.000001   0.000001   0.000000  -0.000000
    17  H   -0.000002   0.000000  -0.000000  -0.000000  -0.000000  -0.000000
    18  H    0.000002  -0.000001  -0.000000   0.000000  -0.000000   0.000000
    19  H    0.000039   0.000001  -0.000000   0.000003   0.000002   0.000000
    20  H   -0.000002   0.000000  -0.000000  -0.000000  -0.000000  -0.000000
    21  H   -0.000135   0.000040  -0.000005  -0.000050  -0.000006  -0.000001
    22  H    0.000304  -0.000011   0.000014   0.000047  -0.000001   0.000004
    23  H    0.000020  -0.000003  -0.000001   0.000009   0.000003  -0.000000
    24  H    0.000388  -0.000007  -0.000009  -0.000069  -0.000003   0.000000
    25  H    0.004397  -0.000762   0.000255   0.001801   0.000363   0.000072
    26  O   -0.005547  -0.000568   0.000103  -0.000890   0.000078   0.000026
    27  H   -0.009819  -0.000063   0.000428   0.003740   0.000187  -0.000039
[...]
 004,-0.00000043,-0.00000183,-0.00000326,-0.00000256,0.00002081,0.00002
 178,0.00000018,-0.00020037,0.00004589,0.00014669,0.00003318,-0.0000529
 0,0.00001328,0.00038654,-0.00006584,-0.00028781,-0.00119785,-0.0009840
 8,-0.00122762,-0.00030999,0.00012296,0.00001606,-0.00188814,0.00285118
 ,0.00085902,0.00019951,0.00010340,0.00010808,-0.00001534,-0.00023201,0
 .00003992,-0.00485000,-0.01351478,-0.01212143,0.00074122,-0.00006987,0
 .00027063,0.00032008,0.00025218,0.00083276,-0.03417918,-0.12256310,-0.
 14857210,0.00395285,0.01340909,0.01209011,0.03741319,0.13539614,0.1602
 7100,0.00000203,0.00000108,-0.00000090,-0.00000062,0.00000121,-0.00000
 055,0.00000044,0.00000012,0.00000111,0.00000185,-0.00000166,-0.0000039
 9,-0.00000417,-0.00000116,0.00000278,-0.00000021,0.00000018,0.00000008
 ,0.00000431,0.00000335,0.00000487,-0.00000063,-0.00000056,0.00000067,-
 0.00000090,-0.00000214,0.00000025,-0.00001019,-0.00000539,-0.00000008,
 -0.00000164,-0.00000068,0.00000016,-0.00001471,0.00000490,-0.00000251,
 -0.00000006,-0.00000009,-0.00000013,-0.00000017,0.00000020,-0.00000006
 ,0.00000037,0.00000012,-0.00000003,-0.00000030,-0.00000017,0.00000017,
 -0.00000010,-0.00000021,0.00000028,0.00000010,0.00000047,0.,0.00000047
 ,0.00000043,0.00000003,0.00000090,0.00000035,-0.00000059,-0.00000084,0
 .00000261,0.00000012,0.00000048,0.00000049,0.00000050,-0.00000066,-0.0
 0000051,-0.00000091,0.00000110,-0.00000081,-0.00000313,0.00001211,0.00
 002313,-0.00000689,-0.00009976,-0.00002561,0.00001389,0.00002770,-0.00
 001796,0.00000607,0.00013571,0.00003559,-0.00003413,0.00019584,0.00027
 843,0.00047372,0.00018553,-0.00002620,-0.00004288,-0.00049066,0.000170
 54,-0.00036737,-0.00123414,-0.00019978,-0.00025067,0.00014843,-0.00030
 327,0.00009767,-0.02738474,0.00520548,0.01632409,0.00197168,-0.0003045
 4,0.00074703,-0.00328636,0.00070565,-0.00268594,-0.15511154,0.01811990
 ,0.05927754,-0.00618052,0.00154905,0.00451824,0.00368406,-0.00016354,-
 0.00279318,0.51851747,-0.00000097,-0.00000053,0.00000109,-0.00000062,0
 .00000069,0.00000056,-0.00000162,0.00000047,-0.00000103,-0.00000573,0.
 00000656,0.00000245,0.00000287,-0.00000092,-0.00000264,-0.00000004,0.0
 0000047,-0.00000030,-0.00000297,-0.00000147,-0.00000244,0.00000026,-0.
 00000053,-0.00000024,0.00000199,-0.00000032,-0.00000086,0.00001075,-0.
 00000174,-0.00000055,0.00000232,-0.00000163,0.00000045,0.00001258,-0.0
 0001029,0.00000467,0.00000008,-0.00000019,-0.00000004,0.00000008,-0.00
 000001,0.00000001,-0.00000003,0.00000019,0.00000003,0.00000023,0.00000
 010,-0.00000015,0.00000023,-0.00000006,-0.00000014,-0.00000097,-0.0000
 0004,0.00000025,-0.00000006,-0.00000023,-0.00000025,-0.00000048,0.0000
 0056,0.00000045,0.00000023,-0.00000100,0.00000218,0.00000009,0.0000009
 2,-0.00000005,0.00000112,0.00000025,0.00000041,-0.00000042,0.00000074,
 0.00000051,-0.00000851,-0.00001942,0.00000007,0.00015540,-0.00000400,-
 0.00011332,-0.00002178,0.00003004,-0.00000783,-0.00023024,0.00002088,0
 .00019455,0.00062319,-0.00030738,-0.00033500,-0.00010499,-0.00003149,-
 0.00005083,-0.00103609,0.00055181,0.00159670,0.00090476,0.00027199,-0.
 00058756,-0.00006801,0.00007600,0.00005993,0.00697612,-0.00199946,-0.0
 0382093,0.00048375,0.00023023,-0.00091114,0.00116521,0.00066046,0.0008
 0953,0.01552946,-0.08362432,-0.01423743,-0.02168672,0.00602665,0.01535
 995,0.02250364,-0.00396851,-0.01516847,0.00873487,0.57034331,0.0000035
 1,0.00000194,-0.00000109,-0.00000057,0.00000109,-0.00000081,0.00000224
 ,-0.00000008,0.00000249,0.00000516,-0.00000502,-0.00000218,-0.00000682
 ,-0.00000055,0.00000239,0.00000017,-0.00000036,0.00000019,0.00000781,0
 .00000569,0.00000813,-0.00000094,-0.00000032,-0.00000019,-0.00000183,-
 0.00000255,0.00000011,-0.00002032,-0.00000469,-0.00000253,-0.00000369,
 -0.00000020,-0.00000091,-0.00003214,0.00001440,-0.00001021,0.00000012,
 0.00000010,-0.00000005,-0.00000051,0.00000004,0.00000006,0.00000030,0.
 00000014,0.00000018,-0.00000026,-0.00000031,0.00000039,-0.00000050,-0.
 00000036,0.00000030,-0.00000004,0.00000042,0.,0.00000022,0.00000009,-0
 .00000020,0.00000118,0.00000019,-0.00000018,-0.00000146,0.00000426,-0.
 00000184,0.00000208,-0.00000030,0.00000078,-0.00000224,-0.00000046,-0.
 00000102,0.00000171,-0.00000159,-0.00000213,0.00001982,0.00004178,-0.0
 0000811,-0.00021725,-0.00003321,0.00005675,0.00005334,-0.00004582,0.00
 001316,0.00033063,0.00002092,-0.00010430,-0.00049698,-0.00038326,-0.00
 055105,-0.00006543,0.00003121,-0.00002535,-0.00082731,0.00099172,0.001
 49572,-0.00050108,-0.00007937,-0.00017117,-0.00004089,-0.00009570,-0.0
 0001896,-0.01285515,0.00317602,0.01322431,-0.00047764,-0.00026639,0.00
 062573,-0.00478891,0.00117947,-0.00175397,0.06058689,-0.01364801,-0.12
 631657,0.01574445,-0.00487016,-0.01190650,0.01769410,-0.00272962,-0.01
 230717,0.04556481,-0.00719189,0.54434729,-0.00000037,0.00000007,0.0000
 0004,-0.00000015,0.00000021,0.00000017,-0.00000034,0.00000053,-0.00000
 027,-0.00000242,0.00000251,0.00000209,0.00000134,-0.00000072,-0.000001
 57,0.00000004,0.00000014,0.00000025,0.00000024,-0.00000021,0.00000084,
 0.00000010,-0.00000015,-0.00000043,0.00000104,-0.00000028,-0.00000028,
 0.00000379,-0.00000221,-0.00000136,0.00000099,-0.00000054,-0.00000024,
 0.00000282,-0.00000310,-0.00000093,0.00000008,-0.00000013,-0.00000007,
 0.00000005,-0.00000005,-0.00000003,0.00000002,0.00000008,0.00000007,0.
 00000002,0.00000010,-0.00000003,0.00000007,-0.00000004,-0.00000004,-0.
 00000052,0.00000002,0.00000011,-0.00000025,-0.00000034,-0.00000013,-0.
 00000034,0.00000018,0.00000041,-0.00000092,0.00000015,0.00000059,-0.00
 000018,0.00000035,-0.00000061,0.00000018,-0.00000013,-0.00000010,0.000
 00050,0.00000052,0.00000094,-0.00000674,0.00000020,0.00000222,0.000025
 87,-0.00001663,-0.00002211,-0.00000594,0.00000806,-0.00000197,-0.00005
 460,0.00002495,0.00005272,0.00018180,0.00001894,0.00020451,0.00001587,
 -0.00002157,-0.00000564,-0.00061532,-0.00003718,-0.00118047,-0.0018633
 5,-0.00005695,-0.00089503,0.00009936,-0.00019699,0.00006603,0.00136353
 ,0.00013658,-0.00020144,-0.00010557,-0.00000066,-0.00002084,0.00005518
 ,-0.00028735,-0.00003157,0.00448976,0.02347183,0.01526398,0.00131360,-
 0.00047794,-0.00096044,-0.00402189,0.00115656,0.00333021,-0.05159358,-
 0.02978074,-0.01951738,0.05561083,-0.00000012,-0.00000043,-0.00000035,
 0.00000038,-0.00000044,-0.00000042,0.00000068,-0.00000056,-0.00000081,
 0.00000362,-0.00000338,-0.00000434,-0.00000161,0.00000159,0.00000423,-
 0.00000049,-0.00000032,-0.00000063,-0.00000063,-0.00000213,-0.00000361
 ,0.00000033,0.00000058,0.00000142,-0.00000125,0.00000068,0.00000120,-0
 .00000481,0.00000201,0.00000307,-0.00000116,0.00000117,0.00000109,-0.0
 0000364,0.00000804,0.00000419,-0.00000015,0.00000024,0.00000020,0.0000
 0008,0.00000014,-0.00000002,-0.00000026,-0.00000033,-0.00000029,-0.000
 00014,-0.00000017,0.00000007,0.00000005,0.00000009,0.00000005,0.000000
 78,-0.00000001,-0.00000045,0.00000020,0.00000060,0.00000047,0.00000059
 ,-0.00000089,-0.00000102,-0.00000006,-0.00000006,-0.00000232,0.0000001
 2,-0.00000016,0.00000089,-0.00000014,0.00000002,0.00000004,-0.00000188
 ,-0.00000101,-0.00000255,0.00000561,0.00000531,-0.00000173,-0.00008078
 ,0.00002426,0.00008967,0.00000818,-0.00001728,0.00000126,0.00013121,-0
 .00003085,-0.00017021,-0.00055794,0.00021796,0.00037229,0.00009533,0.0
 0002854,0.00004653,0.00025658,-0.00010480,-0.00103134,-0.00046912,0.00
 016582,0.00056728,0.00014159,-0.00021069,0.00006998,-0.00006545,-0.000
 21589,-0.00043268,0.00004668,0.00001787,0.00000382,0.00015168,0.000087
 15,0.00010357,-0.00057784,-0.00316275,-0.00145579,0.00040086,0.0008103
 2,0.00006535,0.00086618,0.00131556,-0.00030484,-0.02866056,-0.23174250
 ,-0.12101656,0.03172748,0.24763078,-0.00000114,-0.00000096,0.00000062,
 0.00000079,-0.00000192,0.00000028,0.00000024,-0.00000055,-0.00000030,0
 .00000213,-0.00000466,0.00000017,0.00000114,0.00000247,0.00000057,0.00
 000005,-0.00000082,0.00000004,-0.00000220,-0.00000172,-0.00000153,0.00
 000031,0.00000127,-0.00000007,-0.00000091,0.00000245,-0.00000007,-0.00
 000152,0.00000482,-0.00000089,-0.00000005,0.00000186,-0.00000039,0.000
 00184,0.00000499,0.00000133,-0.00000018,0.00000010,0.00000016,0.000000
 28,0.00000014,-0.00000008,-0.00000033,-0.00000039,-0.00000012,0.000000
 08,-0.00000003,-0.00000036,0.00000003,0.00000029,-0.00000011,0.0000005
 1,-0.00000047,0.00000022,-0.00000003,0.00000008,0.00000033,-0.00000036
 ,-0.00000075,-0.00000014,0.00000089,-0.00000180,0.00000018,-0.00000038
 ,-0.00000039,0.00000015,0.00000022,0.00000014,0.00000004,-0.00000145,-
 0.00000087,-0.00000072,0.00000247,-0.00000480,0.00000104,-0.00002112,0
 .00002308,0.00003398,0.00000056,-0.00000947,0.00000124,0.00002906,-0.0
 0002013,-0.00007248,-0.00023184,0.00020145,0.00028063,0.00006942,0.000
 00652,0.00003090,0.00000290,-0.00027821,-0.00055572,-0.00129608,0.0001
 7315,-0.00004830,0.00014478,-0.00003348,0.00000305,-0.00043620,0.00051
 830,0.00026264,0.00000264,0.00001623,0.00004578,0.00011477,0.00005543,
 0.00003466,-0.00308153,-0.01568870,-0.01160062,-0.00074770,0.00032104,
 0.00052719,0.00391433,-0.00057337,-0.00143346,-0.01898674,-0.12033078,
 -0.12591791,0.01947684,0.13381907,0.13593175,0.00000449,0.00000224,-0.
 00000133,0.00000019,0.00000062,-0.00000086,0.00000250,-0.00000022,0.00
 000269,0.00000744,-0.00000593,-0.00000339,-0.00000759,-0.00000025,0.00
 000399,0.00000048,-0.00000029,0.00000003,0.00000747,0.00000467,0.00000
 558,-0.00000168,-0.00000002,0.00000032,-0.00000309,-0.00000211,0.00000
 061,-0.00001674,-0.00000065,-0.00000110,-0.00000452,0.00000043,-0.0000
 0064,-0.00002405,0.00000967,-0.00000688,0.00000025,0.00000026,0.,-0.00
 000071,-0.00000013,0.00000007,0.00000060,0.00000012,0.00000005,-0.0000
 0009,-0.00000032,0.00000040,-0.00000067,-0.00000035,0.00000012,0.00000
 102,0.00000057,-0.00000031,0.00000014,0.00000035,-0.00000019,0.0000017
 8,-0.00000013,-0.00000066,0.00000092,0.00000301,-0.00000147,0.00000127
 ,-0.00000023,0.00000072,-0.00000175,-0.00000020,-0.00000081,0.00000192
 ,-0.00000126,-0.00000146,0.00001969,0.00002391,-0.00000186,-0.00014603
 ,-0.00000187,0.00005862,0.00003610,-0.00003300,0.00000891,0.00022998,-
 0.00000799,-0.00011082,-0.00043832,-0.00015019,-0.00032338,-0.00002670
 ,0.00003504,0.00001450,0.00057932,0.00060714,0.00068289,0.00005682,0.0
 0001075,0.00002758,-0.00003859,-0.00007470,-0.00002412,-0.00277693,0.0
 0018187,0.00488362,0.00016978,0.00005190,-0.00001470,-0.00145099,0.000
 32243,-0.00089788,-0.01979593,0.00330966,-0.01547061,0.00057547,-0.000
 57069,-0.00013447,0.00136985,0.00021196,-0.00027904,-0.22721673,0.0266
 0021,-0.12417368,-0.00308313,-0.00004564,-0.00177794,0.24686740,-0.000
 00079,-0.00000007,-0.00000015,-0.00000026,0.00000043,0.00000005,-0.000
 00074,0.00000052,-0.00000051,-0.00000157,0.00000156,0.00000045,0.00000
 150,-0.00000046,-0.00000043,-0.00000026,0.00000042,-0.00000013,-0.0000
 0042,-0.00000023,-0.00000048,0.00000045,-0.00000059,0.00000015,0.00000
 092,-0.00000042,0.00000020,0.00000262,-0.00000095,0.00000070,0.0000008
 0,-0.00000062,0.00000020,0.00000259,-0.00000136,0.00000042,-0.00000004
 ,-0.00000003,-0.00000004,0.00000008,-0.00000004,0.,-0.00000007,0.00000
 015,0.00000002,-0.00000003,0.00000003,0.00000004,0.00000014,0.00000001
 ,0.00000001,-0.00000033,0.00000016,-0.00000005,-0.00000003,-0.00000008
 ,-0.00000002,-0.00000024,0.00000028,0.00000014,-0.00000043,-0.00000011
 ,-0.00000021,-0.00000041,0.,-0.00000027,0.00000019,-0.00000015,0.00000
 007,-0.00000026,0.00000063,0.00000030,-0.00000046,-0.00000080,-0.00000
 028,-0.00000044,0.00000817,0.00002799,-0.00000378,0.00000199,0.0000002
 4,0.00000986,-0.00000942,-0.00006087,-0.00016545,0.00011043,0.00021521
 ,0.00004980,0.00000436,0.00002905,0.00014716,-0.00017108,-0.00056826,-
 0.00026399,0.00002224,0.00029203,0.00008387,-0.00001533,0.00003371,0.0
 0134002,0.00053170,-0.00123075,-0.00027354,0.00019354,-0.00023107,0.00
 055271,0.00017070,0.00015727,0.00448852,-0.00215300,0.00346039,-0.0001
 6669,0.00010708,-0.00026899,-0.00005689,0.00012733,0.00046723,0.026333
 88,-0.05092486,0.01857543,-0.02259186,0.00430691,-0.01483234,-0.030486
 04,0.05001739,0.00000013,0.,-0.00000014,0.00000041,-0.00000007,-0.0000
 0004,0.00000018,-0.00000015,-0.00000016,0.00000119,-0.00000008,-0.0000
 0112,-0.00000059,0.00000002,0.00000092,0.00000011,0.00000004,-0.000000
 30,-0.00000070,-0.00000120,-0.00000175,-0.00000018,0.00000001,0.000000
 30,-0.00000057,0.00000023,0.00000026,0.00000097,0.00000093,0.00000110,
 -0.00000041,0.00000016,0.00000045,0.00000328,-0.00000122,0.00000268,0.
 00000004,0.00000012,0.00000017,-0.00000013,-0.00000006,0.00000009,0.00
 000006,-0.00000001,-0.00000002,0.00000001,-0.00000006,0.00000016,-0.00
 000010,0.00000002,-0.00000001,0.00000040,-0.00000004,-0.00000024,0.000
 00013,0.00000014,0.,0.00000029,-0.00000008,-0.00000034,0.00000076,-0.0
 0000031,0.00000018,-0.00000025,0.00000004,-0.00000011,0.00000027,0.000
 00013,0.00000004,-0.00000038,0.00000001,-0.00000021,-0.00000006,-0.000
 00487,0.00000034,0.00001226,0.00001627,0.00002146,-0.00000626,0.000003
 30,-0.00000177,-0.00002269,-0.00001799,-0.00004688,-0.00008748,0.00015
 065,0.00027243,0.00005711,0.00001810,0.00002516,0.00013988,-0.00037659
 ,-0.00064418,-0.00016854,0.00007544,0.00031544,0.00000563,0.00001594,0
 .00005220,0.00307196,-0.00043160,-0.00232288,-0.00002012,-0.00010831,-
 0.00000024,0.00096909,-0.00028784,0.00043635,0.01812649,-0.00320713,0.
 01228780,-0.00083162,0.00032676,0.00060376,-0.00077962,0.00020534,0.00
 109792,-0.12630113,0.01913683,-0.13268758,-0.01298009,0.00297520,-0.00
 981259,0.13409312,-0.01934993,0.14127320,-0.00000034,-0.00000045,0.000
 00087,0.00000073,-0.00000117,0.00000057,0.00000022,-0.00000041,0.00000
 018,0.00000032,-0.00000290,0.00000391,0.00000059,0.00000158,-0.0000025
 6,0.00000061,-0.00000063,0.00000073,-0.00000157,-0.00000018,0.00000060
 ,-0.00000027,0.00000100,-0.00000137,-0.00000057,0.00000115,-0.00000093
 ,-0.00000183,0.00000317,-0.00000331,0.00000016,0.00000120,-0.00000127,
 0.00000147,0.00000360,-0.00000417,0.00000004,-0.00000013,-0.00000003,0
 .00000010,0.00000006,-0.00000006,-0.00000009,-0.00000017,0.00000017,0.
 00000027,0.00000021,-0.00000034,-0.00000006,0.00000014,-0.00000018,0.0
 0000009,-0.00000020,0.00000028,-0.00000017,-0.00000029,-0.00000003,-0.
 00000057,-0.00000027,0.00000060,0.00000127,-0.00000094,0.00000170,-0.0
 0000034,-0.00000074,-0.00000031,-0.00000013,0.00000020,0.00000010,-0.0
 0000001,-0.00000142,0.00000230,0.00000099,-0.00000352,0.00000458,0.000
 00828,0.00001214,-0.00001607,0.00000022,-0.00000466,0.00000527,-0.0000
 1858,-0.00000761,0.00002378,-0.00000517,-0.00000473,-0.00009764,-0.000
 01976,-0.00000335,-0.00000057,0.00006198,0.00001251,0.00004482,0.00004
 518,-0.00004301,-0.00007331,0.00007495,0.00006640,0.00004625,0.0014773
 5,-0.00131378,0.00025912,0.00000108,0.00039976,-0.00032081,0.00031979,
 0.00018304,-0.00002945,-0.00564691,-0.02124723,0.01633938,-0.00399108,
 0.00129308,0.00349830,0.00088378,0.00030348,-0.00065454,-0.05225738,-0
 .03075842,0.02401447,-0.00181146,-0.00336452,0.00282138,0.00509934,0.0
 2099991,-0.01528286,0.05577748,0.00000057,-0.00000001,0.00000066,0.000
 00077,-0.00000148,0.00000047,0.00000091,-0.00000080,0.00000105,0.00000
 149,-0.00000393,0.00000343,-0.00000093,0.00000110,-0.00000226,0.000000
 83,-0.00000085,0.00000091,0.00000032,0.00000103,0.00000300,-0.00000071
 ,0.00000105,-0.00000164,-0.00000134,0.00000143,-0.00000103,-0.00000399
 ,0.00000293,-0.00000419,-0.00000070,0.00000147,-0.00000168,-0.00000287
 ,0.00000321,-0.00000543,0.00000006,-0.00000005,0.00000001,-0.00000004,
 0.00000002,-0.00000002,0.00000011,-0.00000013,0.00000025,0.00000019,0.
 00000012,-0.00000026,-0.00000028,0.00000010,-0.00000012,0.00000044,-0.
 00000034,0.00000038,-0.00000001,-0.00000032,-0.00000009,-0.00000036,-0
 .00000013,0.00000060,0.00000136,-0.00000058,0.00000187,0.00000018,-0.0
 0000081,-0.00000041,-0.00000042,0.00000026,-0.00000010,0.00000066,-0.0
 0000093,0.00000181,0.00000287,0.00000094,0.00000340,-0.00001776,0.0000
 0458,-0.00000312,0.00000634,-0.00000722,0.00000510,0.00001620,-0.00000
 449,-0.00000007,-0.00006501,0.00001504,-0.00006243,-0.00001806,-0.0000
 0547,0.00001429,0.00006830,-0.00003932,0.00010787,-0.00008508,-0.00008
 135,-0.00004320,0.00001216,0.00000176,-0.00004670,-0.00019256,0.000759
 84,-0.00036507,-0.00047022,-0.00013143,-0.00002073,-0.00012168,0.00008
 114,-0.00012918,0.00112084,0.00538449,-0.00413428,0.00135789,0.0011673
 5,-0.00075804,-0.00056310,0.00052462,0.00027091,-0.03145716,-0.2055814
 3,0.12633188,-0.00307367,-0.01913098,0.01663371,0.00000538,-0.00232647
 ,0.00086186,0.03347809,0.21936603,-0.00000118,-0.00000004,-0.00000054,
 -0.00000092,0.00000135,-0.00000027,-0.00000137,0.00000086,-0.00000090,
 -0.00000380,0.00000604,-0.00000128,0.00000234,-0.00000193,-0.00000007,
 -0.00000075,0.00000110,-0.00000063,-0.00000021,0.00000002,-0.00000060,
 0.00000091,-0.00000148,0.00000093,0.00000205,-0.00000117,0.00000051,0.
 00000610,-0.00000403,0.00000296,0.00000197,-0.00000190,0.00000100,0.00
 000582,-0.00000778,0.00000271,-0.00000002,-0.00000005,-0.00000010,0.00
 000009,-0.00000006,0.00000004,-0.00000004,0.00000032,-0.00000010,-0.00
 000020,-0.00000006,0.00000023,0.00000034,-0.00000008,0.00000013,-0.000
 00067,0.00000019,-0.00000012,-0.00000007,-0.00000013,0.00000005,-0.000
 00038,0.00000061,0.00000003,-0.00000126,0.00000009,-0.00000089,-0.0000
 0034,0.00000058,-0.00000015,0.00000053,-0.00000026,0.00000011,0.000000
 15,0.00000208,-0.00000047,-0.00000755,-0.00000250,-0.00000453,0.000039
 64,-0.00001399,-0.00001688,-0.00001132,0.00001688,-0.00000536,-0.00006
 315,0.00001104,0.00004139,0.00019218,0.00006654,0.00008985,0.00001929,
 -0.00000815,-0.00000964,0.00009120,-0.00012905,0.00009690,0.00025322,0
 .00008063,-0.00010392,-0.00000581,-0.00001273,-0.00002504,-0.00120803,
 -0.00009130,0.00096286,0.00036131,-0.00021998,0.00043435,-0.00017210,-
 0.00025017,0.00004324,0.00312743,0.01541413,-0.01258423,0.00327891,-0.
 00129257,-0.00149185,-0.00063731,-0.00007544,0.00020915,0.02444771,0.1
 2559328,-0.14798600,-0.00257898,-0.01370099,0.01228888,0.00344374,0.01
 328346,-0.01087182,-0.03057952,-0.13866339,0.15893007\\0.00000141,0.00
 000455,-0.00000420,0.00000451,-0.00000630,0.00001034,-0.00000185,-0.00
 001081,-0.00000100,-0.00000090,-0.00000531,-0.00000593,-0.00000037,-0.
 00000008,-0.00000313,-0.00000449,0.00000449,-0.00000819,-0.00000124,-0
 .00001173,-0.00001402,-0.00000383,-0.00000307,-0.00001264,0.00000145,0
 .00000024,0.00001545,-0.00000193,-0.00000617,0.00000788,0.00000238,-0.
 00001489,-0.00000963,0.00001198,0.00000596,-0.00000375,-0.00000232,0.0
 0001175,-0.00001361,-0.00000137,0.00000743,-0.00000463,-0.00000125,-0.
 00000151,-0.00001918,-0.00000171,0.00001060,0.00000365,0.00000093,-0.0
 0000645,0.00000451,0.00000419,-0.00000606,0.00001736,0.00000370,-0.000
 01657,0.00000703,0.00000072,-0.00001404,-0.00000946,0.00000434,0.00000
 321,0.00001064,0.00000177,-0.00001416,-0.00000579,-0.00000048,-0.00001
 160,-0.00001519,-0.00000528,0.00000381,-0.00001717,-0.00000981,-0.0000
 0037,0.00000560,0.00003634,0.00000844,-0.00001394,-0.00002844,-0.00000
 644,-0.00001392,-0.00001981,0.00000278,0.00002211,0.00001309,-0.000005
 94,0.00000034,0.00000165,-0.00001469,0.00000948,-0.00000125,0.00000089
 ,0.00000241,0.00000262,-0.00000541,0.00000904,0.00000206,0.00000294,0.
 00001481,-0.00000073,0.00000767,-0.00000030,0.00000002,0.00000231,-0.0
 0000484,-0.00000249,0.00000956,-0.00000125,-0.00000216,0.00001106,0.00
 000588,-0.00000074,0.00001783,0.00000935,-0.00000182,0.00001859,-0.000
 00250,0.00000196,0.00000629,0.00000523,0.00000099,0.00000476,0.0000129
 4,-0.00000106,0.00001297,0.00000888,-0.00000079,0.00000349,0.00000133\
 \\@


 THE MOLECULE ALSO HAS A BODY.  WHEN THIS BODY IS HIT, THE MOLECULE
 FEELS HURT ALL OVER -- A. KITAIGORODSKI
 Job cpu time:       0 days 15 hours 46 minutes 21.4 seconds.
 Elapsed time:       0 days  0 hours 39 minutes 29.8 seconds.
 File lengths (MBytes):  RWF=   1360 Int=      0 D2E=      0 Chk=     39 Scr=      1
 Normal termination of Gaussian 16 at Sat Dec 15 00:25:07 2018.
