 Entering Gaussian System, Link 0=/nopt/nrel/apps/gaussian/g16B/g16/g16
 Initial command:
 /nopt/nrel/apps/gaussian/g16B/g16/l1.exe "/scratch/ykim/gaussianScratch.558361/Gau-341045.inp" -scrdir="/scratch/ykim/gaussianScratch.558361/"
 Default is to use a total of  36 processors:
                               36 via shared-memory
                                1 via Linda
 Entering Link 1 = /nopt/nrel/apps/gaussian/g16B/g16/l1.exe PID=    341046.
  
 Copyright (c) 1988-2017, Gaussian, Inc.  All Rights Reserved.
  
 This is part of the Gaussian(R) 16 program.  It is based on
 the Gaussian(R) 09 system (copyright 2009, Gaussian, Inc.),
 the Gaussian(R) 03 system (copyright 2003, Gaussian, Inc.),
 the Gaussian(R) 98 system (copyright 1998, Gaussian, Inc.),
 the Gaussian(R) 94 system (copyright 1995, Gaussian, Inc.),
 the Gaussian 92(TM) system (copyright 1992, Gaussian, Inc.),
 the Gaussian 90(TM) system (copyright 1990, Gaussian, Inc.),
 the Gaussian 88(TM) system (copyright 1988, Gaussian, Inc.),
 the Gaussian 86(TM) system (copyright 1986, Carnegie Mellon
 University), and the Gaussian 82(TM) system (copyright 1983,
 Carnegie Mellon University). Gaussian is a federally registered
 trademark of Gaussian, Inc.
  
 This software contains proprietary and confidential information,
 including trade secrets, belonging to Gaussian, Inc.
  
 This software is provided under written license and may be
 used, copied, transmitted, or stored only in accord with that
 written license.
  
 The following legend is applicable only to US Government
 contracts under FAR:
  
                    RESTRICTED RIGHTS LEGEND
  
 Use, reproduction and disclosure by the US Government is
 subject to restrictions as set forth in subparagraphs (a)
 and (c) of the Commercial Computer Software - Restricted
 Rights clause in FAR 52.227-19.
  
 Gaussian, Inc.
 340 Quinnipiac St., Bldg. 40, Wallingford CT 06492
  
  
 ---------------------------------------------------------------
 Warning -- This program may not be used in any manner that
 competes with the business of Gaussian, Inc. or will provide
 assistance to any competitor of Gaussian, Inc.  The licensee
 of this program is prohibited from giving any competitor of
 Gaussian, Inc. access to this program.  By using this program,
 the user acknowledges that Gaussian, Inc. is engaged in the
 business of creating and licensing software in the field of
 computational chemistry and represents and warrants to the
 licensee that it is not a competitor of Gaussian, Inc. and that
 it will not use this program in any manner prohibited above.
 ---------------------------------------------------------------
  

 Cite this work as:
 Gaussian 16, Revision B.01,
 M. J. Frisch, G. W. Trucks, H. B. Schlegel, G. E. Scuseria, 
 M. A. Robb, J. R. Cheeseman, G. Scalmani, V. Barone, 
 G. A. Petersson, H. Nakatsuji, X. Li, M. Caricato, A. V. Marenich, 
 J. Bloino, B. G. Janesko, R. Gomperts, B. Mennucci, H. P. Hratchian, 
 J. V. Ortiz, A. F. Izmaylov, J. L. Sonnenberg, D. Williams-Young, 
 F. Ding, F. Lipparini, F. Egidi, J. Goings, B. Peng, A. Petrone, 
 T. Henderson, D. Ranasinghe, V. G. Zakrzewski, J. Gao, N. Rega, 
 G. Zheng, W. Liang, M. Hada, M. Ehara, K. Toyota, R. Fukuda, 
 J. Hasegawa, M. Ishida, T. Nakajima, Y. Honda, O. Kitao, H. Nakai, 
 T. Vreven, K. Throssell, J. A. Montgomery, Jr., J. E. Peralta, 
 F. Ogliaro, M. J. Bearpark, J. J. Heyd, E. N. Brothers, K. N. Kudin, 
 V. N. Staroverov, T. A. Keith, R. Kobayashi, J. Normand, 
 K. Raghavachari, A. P. Rendell, J. C. Burant, S. S. Iyengar, 
 J. Tomasi, M. Cossi, J. M. Millam, M. Klene, C. Adamo, R. Cammi, 
 J. W. Ochterski, R. L. Martin, K. Morokuma, O. Farkas, 
 J. B. Foresman, and D. J. Fox, Gaussian, Inc., Wallingford CT, 2016.
 
 ******************************************
 Gaussian 16:  ES64L-G16RevB.01 20-Dec-2017
                23-Jan-2019 
 ******************************************
 %nprocshared=18
 Will use up to   18 processors via shared memory.
 %mem=24GB
 Default route: CacheSize=180224 MaxDisk=256GB
 ----------------------------------------------------------------------
 # opt freq m062x/6-311++g(d,p) scrf=(smd,solvent=generic,read) scf=(xq
 c,maxconventionalcycles=400) temperature=443.15
 ----------------------------------------------------------------------
 1/4=180224,18=20,19=15,26=3,38=1,40=2,112=443150/1,3;
 2/4=180224,9=110,12=2,17=6,18=5,40=1/2;
 3/4=180224,5=4,6=6,7=1111,11=2,25=1,30=1,70=32203,71=1,72=-2,74=-55/1,2,3;
 4/4=180224/1;
 5/4=180224,5=2,8=3,13=1,38=5,85=400/2,8;
 6/4=180224,7=2,8=2,9=2,10=2,28=1/1;
 7/4=180224/1,2,3,16;
 1/4=180224,18=20,19=15,26=3/3(2);
 2/4=180224,9=110/2;
 99/4=180224/99;
 2/4=180224,9=110/2;
 3/4=180224,5=4,6=6,7=1111,11=2,25=1,30=1,70=32205,71=1,72=-2,74=-55/1,2,3;
 4/4=180224,5=5,16=3,69=1/1;
 5/4=180224,5=2,8=3,13=1,38=5,85=400/2,8;
 7/4=180224/1,2,3,16;
 1/4=180224,18=20,19=15,26=3/3(-5);
 2/4=180224,9=110/2;
 6/4=180224,7=2,8=2,9=2,10=2,19=2,28=1/1;
 99/4=180224,9=1/99;
 -------------------
 Title Card Required
 -------------------
 Symbolic Z-matrix:
 Charge =  1 Multiplicity = 1
 C                     3.23245   0.49674  -0.92157 
 C                     3.38042   1.04885   0.50884 
 C                     2.39656   0.19293   1.32839 
 C                     1.29491  -0.03136   0.27044 
 O                     2.00363  -0.25487  -0.923 
 C                     4.35893  -0.39721  -1.3847 
 C                     0.39831  -1.23487   0.49615 
 O                     4.53745  -1.4367   -0.42736 
 O                     2.94453   2.40782   0.47164 
 O                     0.47665   1.12776   0.16285 
 O                     2.96128  -1.00313   1.78362 
 O                    -0.37881  -1.52072  -0.67161 
 H                     4.10562  -0.81713  -2.36227 
 H                     5.26672   0.20629  -1.47912 
 H                     5.30465  -1.9695   -0.66082 
 H                     3.14474   1.33409  -1.61933 
 H                     4.40151   0.97012   0.88746 
 H                     3.14112   2.82242   1.32081 
 H                     2.00907   0.73625   2.19165 
 H                     3.53779  -1.36058   1.08661 
 H                     1.04795   1.9131    0.1623 
 H                    -0.30201  -1.03244   1.30709 
 H                     1.00986  -2.09826   0.75494 
 H                     0.23235  -1.69538  -1.40091 
 H                    -1.17502   1.0934   -0.51823 
 O                    -1.88723   0.55316  -0.92571 
 H                    -1.46035  -0.35181  -0.9491 
 H                    -2.91619   0.60374  -0.38093 
 C                    -4.34012  -0.46103   1.02743 
 O                    -4.01568   0.6633    0.14643 
 C                    -5.11703   0.91197  -0.78948 
 C                    -6.26578   0.08318  -0.24259 
 C                    -5.54275  -1.11691   0.37461 
 H                    -3.45585  -1.09515   1.09569 
 H                    -4.57338  -0.04089   2.00585 
 H                    -4.79415   0.57114  -1.77541 
 H                    -6.80338   0.64125   0.52693 
 H                    -6.96445  -0.19568  -1.03012 
 H                    -6.14976  -1.65411   1.10212 
 H                    -5.22135  -1.81258  -0.4039 
 C                    -5.36949   2.43104  -0.8062 
 H                    -4.4902    2.93498  -1.14942 
 H                    -6.1853    2.64981  -1.46309 
 H                    -5.60838   2.7638    0.18228 
 
 Add virtual bond connecting atoms H28        and O26        Dist= 2.20D+00.
 Add virtual bond connecting atoms O30        and H28        Dist= 2.31D+00.
 Add virtual bond connecting atoms H27        and O12        Dist= 3.05D+00.

 GradGradGradGradGradGradGradGradGradGradGradGradGradGradGradGradGradGrad
 Berny optimization.
 Initialization pass.
                           ----------------------------
                           !    Initial Parameters    !
                           ! (Angstroms and Degrees)  !
 --------------------------                            --------------------------
 ! Name  Definition              Value          Derivative Info.                !
 --------------------------------------------------------------------------------
 ! R1    R(1,2)                  1.5404         estimate D2E/DX2                !
 ! R2    R(1,5)                  1.4405         estimate D2E/DX2                !
 ! R3    R(1,6)                  1.5108         estimate D2E/DX2                !
 ! R4    R(1,16)                 1.0935         estimate D2E/DX2                !
 ! R5    R(2,3)                  1.5402         estimate D2E/DX2                !
 ! R6    R(2,9)                  1.4276         estimate D2E/DX2                !
 ! R7    R(2,17)                 1.0919         estimate D2E/DX2                !
 ! R8    R(3,4)                  1.5438         estimate D2E/DX2                !
 ! R9    R(3,11)                 1.3988         estimate D2E/DX2                !
 ! R10   R(3,19)                 1.0911         estimate D2E/DX2                !
 ! R11   R(4,5)                  1.4059         estimate D2E/DX2                !
 ! R12   R(4,7)                  1.5177         estimate D2E/DX2                !
 ! R13   R(4,10)                 1.4229         estimate D2E/DX2                !
 ! R14   R(6,8)                  1.4244         estimate D2E/DX2                !
 ! R15   R(6,13)                 1.0937         estimate D2E/DX2                !
 ! R16   R(6,14)                 1.0942         estimate D2E/DX2                !
 ! R17   R(7,12)                 1.4315         estimate D2E/DX2                !
 ! R18   R(7,22)                 1.0904         estimate D2E/DX2                !
 ! R19   R(7,23)                 1.0892         estimate D2E/DX2                !
 ! R20   R(8,15)                 0.9628         estimate D2E/DX2                !
 ! R21   R(9,18)                 0.9652         estimate D2E/DX2                !
 ! R22   R(10,21)                0.9711         estimate D2E/DX2                !
 ! R23   R(11,20)                0.9726         estimate D2E/DX2                !
 ! R24   R(12,24)                0.9674         estimate D2E/DX2                !
 ! R25   R(12,27)                1.6165         estimate D2E/DX2                !
 ! R26   R(25,26)                0.9824         estimate D2E/DX2                !
 ! R27   R(26,27)                1.0009         estimate D2E/DX2                !
 ! R28   R(26,28)                1.1654         estimate D2E/DX2                !
 ! R29   R(28,30)                1.2209         estimate D2E/DX2                !
 ! R30   R(29,30)                1.4648         estimate D2E/DX2                !
 ! R31   R(29,33)                1.5175         estimate D2E/DX2                !
 ! R32   R(29,34)                1.0903         estimate D2E/DX2                !
 ! R33   R(29,35)                1.0901         estimate D2E/DX2                !
 ! R34   R(30,31)                1.4665         estimate D2E/DX2                !
 ! R35   R(31,32)                1.5184         estimate D2E/DX2                !
 ! R36   R(31,36)                1.092          estimate D2E/DX2                !
 ! R37   R(31,41)                1.54           estimate D2E/DX2                !
 ! R38   R(32,33)                1.531          estimate D2E/DX2                !
 ! R39   R(32,37)                1.0921         estimate D2E/DX2                !
 ! R40   R(32,38)                1.0891         estimate D2E/DX2                !
 ! R41   R(33,39)                1.0892         estimate D2E/DX2                !
 ! R42   R(33,40)                1.0924         estimate D2E/DX2                !
 ! R43   R(41,42)                1.07           estimate D2E/DX2                !
 ! R44   R(41,43)                1.07           estimate D2E/DX2                !
 ! R45   R(41,44)                1.07           estimate D2E/DX2                !
 ! A1    A(2,1,5)              105.6572         estimate D2E/DX2                !
 ! A2    A(2,1,6)              115.1576         estimate D2E/DX2                !
 ! A3    A(2,1,16)             109.013          estimate D2E/DX2                !
 ! A4    A(5,1,6)              109.0878         estimate D2E/DX2                !
 ! A5    A(5,1,16)             109.2996         estimate D2E/DX2                !
 ! A6    A(6,1,16)             108.4999         estimate D2E/DX2                !
 ! A7    A(1,2,3)              103.5075         estimate D2E/DX2                !
 ! A8    A(1,2,9)              106.7175         estimate D2E/DX2                !
 ! A9    A(1,2,17)             112.7056         estimate D2E/DX2                !
 ! A10   A(3,2,9)              110.3536         estimate D2E/DX2                !
 ! A11   A(3,2,17)             111.888          estimate D2E/DX2                !
 ! A12   A(9,2,17)             111.2968         estimate D2E/DX2                !
 ! A13   A(2,3,4)               99.9003         estimate D2E/DX2                !
 ! A14   A(2,3,11)             112.9823         estimate D2E/DX2                !
 ! A15   A(2,3,19)             111.7846         estimate D2E/DX2                !
 ! A16   A(4,3,11)             112.761          estimate D2E/DX2                !
 ! A17   A(4,3,19)             111.1684         estimate D2E/DX2                !
 ! A18   A(11,3,19)            108.1591         estimate D2E/DX2                !
 ! A19   A(3,4,5)              104.188          estimate D2E/DX2                !
 ! A20   A(3,4,7)              115.7781         estimate D2E/DX2                !
 ! A21   A(3,4,10)             110.1105         estimate D2E/DX2                !
 ! A22   A(5,4,7)              107.337          estimate D2E/DX2                !
 ! A23   A(5,4,10)             110.8065         estimate D2E/DX2                !
 ! A24   A(7,4,10)             108.512          estimate D2E/DX2                !
 ! A25   A(1,5,4)              110.2581         estimate D2E/DX2                !
 ! A26   A(1,6,8)              108.6159         estimate D2E/DX2                !
 ! A27   A(1,6,13)             109.1764         estimate D2E/DX2                !
 ! A28   A(1,6,14)             108.5837         estimate D2E/DX2                !
 ! A29   A(8,6,13)             110.4617         estimate D2E/DX2                !
 ! A30   A(8,6,14)             110.8879         estimate D2E/DX2                !
 ! A31   A(13,6,14)            109.0748         estimate D2E/DX2                !
 ! A32   A(4,7,12)             110.9613         estimate D2E/DX2                !
 ! A33   A(4,7,22)             110.0482         estimate D2E/DX2                !
 ! A34   A(4,7,23)             109.4037         estimate D2E/DX2                !
 ! A35   A(12,7,22)            107.1625         estimate D2E/DX2                !
 ! A36   A(12,7,23)            109.8967         estimate D2E/DX2                !
 ! A37   A(22,7,23)            109.3323         estimate D2E/DX2                !
 ! A38   A(6,8,15)             109.9219         estimate D2E/DX2                !
 ! A39   A(2,9,18)             108.8907         estimate D2E/DX2                !
 ! A40   A(4,10,21)            108.6932         estimate D2E/DX2                !
 ! A41   A(3,11,20)            108.6825         estimate D2E/DX2                !
 ! A42   A(7,12,24)            107.9425         estimate D2E/DX2                !
 ! A43   A(7,12,27)            111.029          estimate D2E/DX2                !
 ! A44   A(24,12,27)           115.076          estimate D2E/DX2                !
 ! A45   A(25,26,27)           101.403          estimate D2E/DX2                !
 ! A46   A(25,26,28)           114.9816         estimate D2E/DX2                !
 ! A47   A(27,26,28)           115.2616         estimate D2E/DX2                !
 ! A48   A(12,27,26)           159.2562         estimate D2E/DX2                !
 ! A49   A(30,29,33)           104.3925         estimate D2E/DX2                !
 ! A50   A(30,29,34)           107.7249         estimate D2E/DX2                !
 ! A51   A(30,29,35)           106.9426         estimate D2E/DX2                !
 ! A52   A(33,29,34)           114.729          estimate D2E/DX2                !
 ! A53   A(33,29,35)           112.5287         estimate D2E/DX2                !
 ! A54   A(34,29,35)           109.9698         estimate D2E/DX2                !
 ! A55   A(28,30,29)           114.9507         estimate D2E/DX2                !
 ! A56   A(28,30,31)           114.1374         estimate D2E/DX2                !
 ! A57   A(29,30,31)           110.3436         estimate D2E/DX2                !
 ! A58   A(30,31,32)           104.2259         estimate D2E/DX2                !
 ! A59   A(30,31,36)           107.53           estimate D2E/DX2                !
 ! A60   A(30,31,41)           107.2955         estimate D2E/DX2                !
 ! A61   A(32,31,36)           112.2421         estimate D2E/DX2                !
 ! A62   A(32,31,41)           114.727          estimate D2E/DX2                !
 ! A63   A(36,31,41)           110.2761         estimate D2E/DX2                !
 ! A64   A(31,32,33)           102.4607         estimate D2E/DX2                !
 ! A65   A(31,32,37)           110.3219         estimate D2E/DX2                !
 ! A66   A(31,32,38)           111.3862         estimate D2E/DX2                !
 ! A67   A(33,32,37)           110.4253         estimate D2E/DX2                !
 ! A68   A(33,32,38)           113.1895         estimate D2E/DX2                !
 ! A69   A(37,32,38)           108.9394         estimate D2E/DX2                !
 ! A70   A(29,33,32)           102.0582         estimate D2E/DX2                !
 ! A71   A(29,33,39)           111.5621         estimate D2E/DX2                !
 ! A72   A(29,33,40)           110.4062         estimate D2E/DX2                !
 ! A73   A(32,33,39)           113.1223         estimate D2E/DX2                !
 ! A74   A(32,33,40)           110.5383         estimate D2E/DX2                !
 ! A75   A(39,33,40)           109.0197         estimate D2E/DX2                !
 ! A76   A(31,41,42)           109.4712         estimate D2E/DX2                !
 ! A77   A(31,41,43)           109.4712         estimate D2E/DX2                !
 ! A78   A(31,41,44)           109.4712         estimate D2E/DX2                !
 ! A79   A(42,41,43)           109.4713         estimate D2E/DX2                !
 ! A80   A(42,41,44)           109.4712         estimate D2E/DX2                !
 ! A81   A(43,41,44)           109.4712         estimate D2E/DX2                !
 ! A82   L(26,28,30,42,-1)     178.5513         estimate D2E/DX2                !
 ! A83   L(26,28,30,42,-2)     178.0608         estimate D2E/DX2                !
 ! D1    D(5,1,2,3)             16.5637         estimate D2E/DX2                !
 ! D2    D(5,1,2,9)            -99.9007         estimate D2E/DX2                !
 ! D3    D(5,1,2,17)           137.636          estimate D2E/DX2                !
 ! D4    D(6,1,2,3)           -103.8904         estimate D2E/DX2                !
 ! D5    D(6,1,2,9)            139.6452         estimate D2E/DX2                !
 ! D6    D(6,1,2,17)            17.182          estimate D2E/DX2                !
 ! D7    D(16,1,2,3)           133.9269         estimate D2E/DX2                !
 ! D8    D(16,1,2,9)            17.4626         estimate D2E/DX2                !
 ! D9    D(16,1,2,17)         -105.0007         estimate D2E/DX2                !
 ! D10   D(2,1,5,4)              9.751          estimate D2E/DX2                !
 ! D11   D(6,1,5,4)            134.0955         estimate D2E/DX2                !
 ! D12   D(16,1,5,4)          -107.4191         estimate D2E/DX2                !
 ! D13   D(2,1,6,8)             53.4945         estimate D2E/DX2                !
 ! D14   D(2,1,6,13)           174.0052         estimate D2E/DX2                !
 ! D15   D(2,1,6,14)           -67.181          estimate D2E/DX2                !
 ! D16   D(5,1,6,8)            -65.0626         estimate D2E/DX2                !
 ! D17   D(5,1,6,13)            55.4481         estimate D2E/DX2                !
 ! D18   D(5,1,6,14)           174.2619         estimate D2E/DX2                !
 ! D19   D(16,1,6,8)           175.9526         estimate D2E/DX2                !
 ! D20   D(16,1,6,13)          -63.5367         estimate D2E/DX2                !
 ! D21   D(16,1,6,14)           55.2771         estimate D2E/DX2                !
 ! D22   D(1,2,3,4)            -33.6714         estimate D2E/DX2                !
 ! D23   D(1,2,3,11)            86.3696         estimate D2E/DX2                !
 ! D24   D(1,2,3,19)          -151.3502         estimate D2E/DX2                !
 ! D25   D(9,2,3,4)             80.1979         estimate D2E/DX2                !
 ! D26   D(9,2,3,11)          -159.7612         estimate D2E/DX2                !
 ! D27   D(9,2,3,19)           -37.4809         estimate D2E/DX2                !
 ! D28   D(17,2,3,4)          -155.2941         estimate D2E/DX2                !
 ! D29   D(17,2,3,11)          -35.2532         estimate D2E/DX2                !
 ! D30   D(17,2,3,19)           87.0271         estimate D2E/DX2                !
 ! D31   D(1,2,9,18)          -172.0117         estimate D2E/DX2                !
 ! D32   D(3,2,9,18)            76.1776         estimate D2E/DX2                !
 ! D33   D(17,2,9,18)          -48.6686         estimate D2E/DX2                !
 ! D34   D(2,3,4,5)             40.3826         estimate D2E/DX2                !
 ! D35   D(2,3,4,7)            157.9914         estimate D2E/DX2                !
 ! D36   D(2,3,4,10)           -78.4824         estimate D2E/DX2                !
 ! D37   D(11,3,4,5)           -79.8192         estimate D2E/DX2                !
 ! D38   D(11,3,4,7)            37.7895         estimate D2E/DX2                !
 ! D39   D(11,3,4,10)          161.3157         estimate D2E/DX2                !
 ! D40   D(19,3,4,5)           158.5191         estimate D2E/DX2                !
 ! D41   D(19,3,4,7)           -83.8721         estimate D2E/DX2                !
 ! D42   D(19,3,4,10)           39.6541         estimate D2E/DX2                !
 ! D43   D(2,3,11,20)          -38.6816         estimate D2E/DX2                !
 ! D44   D(4,3,11,20)           73.6812         estimate D2E/DX2                !
 ! D45   D(19,3,11,20)        -162.9693         estimate D2E/DX2                !
 ! D46   D(3,4,5,1)            -32.1423         estimate D2E/DX2                !
 ! D47   D(7,4,5,1)           -155.4299         estimate D2E/DX2                !
 ! D48   D(10,4,5,1)            86.247          estimate D2E/DX2                !
 ! D49   D(3,4,7,12)          -167.1579         estimate D2E/DX2                !
 ! D50   D(3,4,7,22)            74.4061         estimate D2E/DX2                !
 ! D51   D(3,4,7,23)           -45.7368         estimate D2E/DX2                !
 ! D52   D(5,4,7,12)           -51.3148         estimate D2E/DX2                !
 ! D53   D(5,4,7,22)          -169.7507         estimate D2E/DX2                !
 ! D54   D(5,4,7,23)            70.1064         estimate D2E/DX2                !
 ! D55   D(10,4,7,12)           68.4836         estimate D2E/DX2                !
 ! D56   D(10,4,7,22)          -49.9524         estimate D2E/DX2                !
 ! D57   D(10,4,7,23)         -170.0952         estimate D2E/DX2                !
 ! D58   D(3,4,10,21)           43.3233         estimate D2E/DX2                !
 ! D59   D(5,4,10,21)          -71.4081         estimate D2E/DX2                !
 ! D60   D(7,4,10,21)          170.9847         estimate D2E/DX2                !
 ! D61   D(1,6,8,15)          -174.6799         estimate D2E/DX2                !
 ! D62   D(13,6,8,15)           65.6081         estimate D2E/DX2                !
 ! D63   D(14,6,8,15)          -55.4387         estimate D2E/DX2                !
 ! D64   D(4,7,12,24)           59.3897         estimate D2E/DX2                !
 ! D65   D(4,7,12,27)          -67.6063         estimate D2E/DX2                !
 ! D66   D(22,7,12,24)         179.5569         estimate D2E/DX2                !
 ! D67   D(22,7,12,27)          52.5609         estimate D2E/DX2                !
 ! D68   D(23,7,12,24)         -61.7417         estimate D2E/DX2                !
 ! D69   D(23,7,12,27)         171.2623         estimate D2E/DX2                !
 ! D70   D(7,12,27,26)          23.2928         estimate D2E/DX2                !
 ! D71   D(24,12,27,26)        -99.6826         estimate D2E/DX2                !
 ! D72   D(25,26,27,12)          8.3851         estimate D2E/DX2                !
 ! D73   D(28,26,27,12)       -116.4741         estimate D2E/DX2                !
 ! D74   D(25,26,30,29)       -100.2945         estimate D2E/DX2                !
 ! D75   D(25,26,30,31)        131.1921         estimate D2E/DX2                !
 ! D76   D(27,26,30,29)         18.0936         estimate D2E/DX2                !
 ! D77   D(27,26,30,31)       -110.4198         estimate D2E/DX2                !
 ! D78   D(33,29,30,28)       -117.2394         estimate D2E/DX2                !
 ! D79   D(33,29,30,31)         13.569          estimate D2E/DX2                !
 ! D80   D(34,29,30,28)          5.1333         estimate D2E/DX2                !
 ! D81   D(34,29,30,31)        135.9417         estimate D2E/DX2                !
 ! D82   D(35,29,30,28)        123.3093         estimate D2E/DX2                !
 ! D83   D(35,29,30,31)       -105.8823         estimate D2E/DX2                !
 ! D84   D(30,29,33,32)        -33.326          estimate D2E/DX2                !
 ! D85   D(30,29,33,39)       -154.4026         estimate D2E/DX2                !
 ! D86   D(30,29,33,40)         84.2057         estimate D2E/DX2                !
 ! D87   D(34,29,33,32)       -150.9866         estimate D2E/DX2                !
 ! D88   D(34,29,33,39)         87.9368         estimate D2E/DX2                !
 ! D89   D(34,29,33,40)        -33.4549         estimate D2E/DX2                !
 ! D90   D(35,29,33,32)         82.2785         estimate D2E/DX2                !
 ! D91   D(35,29,33,39)        -38.7981         estimate D2E/DX2                !
 ! D92   D(35,29,33,40)       -160.1898         estimate D2E/DX2                !
 ! D93   D(28,30,31,32)        143.3592         estimate D2E/DX2                !
 ! D94   D(28,30,31,36)         24.0453         estimate D2E/DX2                !
 ! D95   D(28,30,31,41)        -94.5741         estimate D2E/DX2                !
 ! D96   D(29,30,31,32)         12.1239         estimate D2E/DX2                !
 ! D97   D(29,30,31,36)       -107.19           estimate D2E/DX2                !
 ! D98   D(29,30,31,41)        134.1906         estimate D2E/DX2                !
 ! D99   D(30,31,32,33)        -32.5446         estimate D2E/DX2                !
 ! D100  D(30,31,32,37)         85.034          estimate D2E/DX2                !
 ! D101  D(30,31,32,38)       -153.8522         estimate D2E/DX2                !
 ! D102  D(36,31,32,33)         83.5203         estimate D2E/DX2                !
 ! D103  D(36,31,32,37)       -158.9011         estimate D2E/DX2                !
 ! D104  D(36,31,32,38)        -37.7872         estimate D2E/DX2                !
 ! D105  D(41,31,32,33)       -149.572          estimate D2E/DX2                !
 ! D106  D(41,31,32,37)        -31.9934         estimate D2E/DX2                !
 ! D107  D(41,31,32,38)         89.1204         estimate D2E/DX2                !
 ! D108  D(30,31,41,42)         61.3447         estimate D2E/DX2                !
 ! D109  D(30,31,41,43)       -178.6553         estimate D2E/DX2                !
 ! D110  D(30,31,41,44)        -58.6553         estimate D2E/DX2                !
 ! D111  D(32,31,41,42)        176.6069         estimate D2E/DX2                !
 ! D112  D(32,31,41,43)        -63.3931         estimate D2E/DX2                !
 ! D113  D(32,31,41,44)         56.6069         estimate D2E/DX2                !
 ! D114  D(36,31,41,42)        -55.4852         estimate D2E/DX2                !
 ! D115  D(36,31,41,43)         64.5148         estimate D2E/DX2                !
 ! D116  D(36,31,41,44)       -175.4852         estimate D2E/DX2                !
 ! D117  D(31,32,33,29)         40.5446         estimate D2E/DX2                !
 ! D118  D(31,32,33,39)        160.534          estimate D2E/DX2                !
 ! D119  D(31,32,33,40)        -76.8923         estimate D2E/DX2                !
 ! D120  D(37,32,33,29)        -76.9603         estimate D2E/DX2                !
 ! D121  D(37,32,33,39)         43.029          estimate D2E/DX2                !
 ! D122  D(37,32,33,40)        165.6028         estimate D2E/DX2                !
 ! D123  D(38,32,33,29)        160.6065         estimate D2E/DX2                !
 ! D124  D(38,32,33,39)        -79.4041         estimate D2E/DX2                !
 ! D125  D(38,32,33,40)         43.1696         estimate D2E/DX2                !
 --------------------------------------------------------------------------------
 Trust Radius=3.00D-01 FncErr=1.00D-07 GrdErr=1.00D-06 EigMax=2.50D+02 EigMin=1.00D-04
 Number of steps in this run=    263 maximum allowed number of steps=    264.
 GradGradGradGradGradGradGradGradGradGradGradGradGradGradGradGradGradGrad

                          Input orientation:                          
 ---------------------------------------------------------------------
 Center     Atomic      Atomic             Coordinates (Angstroms)
 Number     Number       Type             X           Y           Z
 ---------------------------------------------------------------------
      1          6           0        3.232454    0.496738   -0.921574
      2          6           0        3.380419    1.048849    0.508840
      3          6           0        2.396557    0.192933    1.328387
      4          6           0        1.294910   -0.031361    0.270441
      5          8           0        2.003632   -0.254873   -0.922997
      6          6           0        4.358934   -0.397213   -1.384698
      7          6           0        0.398306   -1.234872    0.496150
      8          8           0        4.537447   -1.436696   -0.427356
      9          8           0        2.944527    2.407818    0.471637
     10          8           0        0.476649    1.127764    0.162850
     11          8           0        2.961275   -1.003129    1.783620
     12          8           0       -0.378808   -1.520721   -0.671613
     13          1           0        4.105616   -0.817132   -2.362265
     14          1           0        5.266719    0.206294   -1.479122
     15          1           0        5.304646   -1.969498   -0.660819
     16          1           0        3.144745    1.334090   -1.619332
     17          1           0        4.401505    0.970123    0.887462
     18          1           0        3.141119    2.822415    1.320806
     19          1           0        2.009065    0.736251    2.191648
     20          1           0        3.537794   -1.360583    1.086606
     21          1           0        1.047946    1.913099    0.162304
     22          1           0       -0.302014   -1.032443    1.307092
     23          1           0        1.009863   -2.098264    0.754943
     24          1           0        0.232348   -1.695378   -1.400906
     25          1           0       -1.175023    1.093397   -0.518227
     26          8           0       -1.887229    0.553161   -0.925711
     27          1           0       -1.460349   -0.351807   -0.949099
     28          1           0       -2.916192    0.603744   -0.380926
     29          6           0       -4.340121   -0.461029    1.027428
     30          8           0       -4.015679    0.663296    0.146434
     31          6           0       -5.117034    0.911969   -0.789483
     32          6           0       -6.265777    0.083181   -0.242593
     33          6           0       -5.542751   -1.116914    0.374611
     34          1           0       -3.455851   -1.095150    1.095687
     35          1           0       -4.573377   -0.040893    2.005851
     36          1           0       -4.794145    0.571138   -1.775406
     37          1           0       -6.803384    0.641253    0.526930
     38          1           0       -6.964451   -0.195676   -1.030119
     39          1           0       -6.149759   -1.654111    1.102124
     40          1           0       -5.221355   -1.812584   -0.403897
     41          6           0       -5.369491    2.431043   -0.806204
     42          1           0       -4.490200    2.934975   -1.149424
     43          1           0       -6.185300    2.649812   -1.463088
     44          1           0       -5.608381    2.763802    0.182281
 ---------------------------------------------------------------------
                    Distance matrix (angstroms):
                    1          2          3          4          5
     1  C    0.000000
     2  C    1.540391   0.000000
     3  C    2.419369   1.540206   0.000000
     4  C    2.335351   2.360728   1.543756   0.000000
     5  O    1.440460   2.376003   2.328873   1.405894   0.000000
     6  C    1.510824   2.575669   3.400004   3.501653   2.404345
     7  C    3.611206   3.756134   2.593116   1.517657   2.356151
     8  O    2.384413   2.897087   3.212746   3.602212   2.839469
     9  O    2.382470   1.427649   2.437213   2.951493   3.149637
    10  O    3.027975   2.925375   2.432783   1.422919   2.328610
    11  O    3.105030   2.451807   1.398824   2.451697   2.966942
    12  O    4.144133   4.704035   3.826129   2.430430   2.709536
    13  H    2.136412   3.500149   4.190707   3.930476   2.608824
    14  H    2.129190   2.867058   4.014986   4.346575   3.342108
    15  H    3.231763   3.765789   4.134009   4.549901   3.728990
    16  H    1.093489   2.160097   3.248241   2.976170   2.076493
    17  H    2.205308   1.091865   2.195053   3.321839   3.244714
    18  H    3.231932   1.965220   2.732875   3.557498   3.974699
    19  H    3.353535   2.193210   1.091130   2.188671   3.268542
    20  H    2.752392   2.482729   1.942754   2.731938   2.759484
    21  H    2.820097   2.511463   2.477392   1.963061   2.606015
    22  H    4.449473   4.304567   2.963829   2.151041   3.300593
    23  H    3.805871   3.947711   2.738858   2.141981   2.683496
    24  H    3.746434   4.592196   3.962141   2.586772   2.332573
    25  H    4.465932   4.670000   4.120316   2.826243   3.476423
    26  O    5.119996   5.481948   4.854024   3.449414   3.973880
    27  H    4.768982   5.245994   4.512140   3.030085   3.465435
    28  H    6.173297   6.374724   5.596054   4.308250   5.023518
    29  C    7.877805   7.883870   6.775033   5.701861   6.640020
    30  O    7.328289   7.415002   6.537203   5.357264   6.182137
    31  C    8.360850   8.597156   7.839416   6.567065   7.216871
    32  C    9.531445   9.723490   8.804320   7.578939   8.304237
    33  C    9.015996   9.183219   8.102962   6.924080   7.705504
    34  H    7.164975   7.188582   5.996998   4.937855   5.881080
    35  H    8.354033   8.166483   7.006683   6.119520   7.202846
    36  H    8.072227   8.501146   7.841095   6.451751   6.900628
    37  H   10.140863  10.191973   9.245661   8.130225   8.970444
    38  H   10.220963  10.532501   9.661368   8.362745   8.968918
    39  H    9.836027   9.923823   8.746558   7.664732   8.516852
    40  H    8.778829   9.111059   8.065698   6.788902   7.409208
    41  C    8.817500   8.955486   8.359253   7.185878   7.847976
    42  H    8.101623   8.261595   7.815738   6.654522   7.238525
    43  H    9.675901   9.897200   9.352906   8.133102   8.705601
    44  H    9.193391   9.156759   8.485397   7.448231   8.262977
                    6          7          8          9         10
     6  C    0.000000
     7  C    4.463836   0.000000
     8  O    1.424393   4.245714   0.000000
     9  O    3.648935   4.444438   4.257449   0.000000
    10  O    4.448887   2.387316   4.838892   2.797197   0.000000
    11  O    3.515512   2.877515   2.749675   3.654605   3.652529
    12  O    4.921073   1.431533   4.923036   5.271147   2.905617
    13  H    1.093681   4.699914   2.077068   4.447407   4.829930
    14  H    1.094171   5.447945   2.082658   3.747632   5.146839
    15  H    1.972423   5.094156   0.962797   5.100344   5.794913
    16  H    2.127609   4.314830   3.322301   2.359053   3.215195
    17  H    2.652194   4.587018   2.745907   2.088699   3.994297
    18  H    4.378222   4.966353   4.811011   0.965208   3.363347
    19  H    4.426836   3.058526   4.239528   2.574425   2.572470
    20  H    2.776634   3.197003   1.815814   3.864065   4.051642
    21  H    4.323586   3.231595   4.872930   1.984302   0.971150
    22  H    5.419750   1.090437   5.156754   4.803479   2.565560
    23  H    4.322952   1.089230   3.778803   4.912022   3.322973
    24  H    4.325992   1.959191   4.421379   5.262941   3.236533
    25  H    5.796324   2.987501   6.248355   4.436015   1.786916
    26  O    6.334701   3.231473   6.744209   5.360802   2.665155
    27  H    5.835740   2.514587   6.117414   5.388595   2.679090
    28  H    7.411945   3.890459   7.728020   6.191088   3.475868
    29  C    9.027513   4.830505   9.048731   7.848903   5.145195
    30  O    8.579230   4.817531   8.825824   7.182867   4.516305
    31  C    9.584477   6.056464   9.942654   8.295586   5.678274
    32  C   10.696713   6.833228  10.911178   9.525952   6.834899
    33  C   10.082485   5.943471  10.117104   9.190595   6.427799
    34  H    8.228626   3.903011   8.144270   7.322913   4.612601
    35  H    9.560804   5.331268   9.532884   8.054122   5.501379
    36  H    9.212449   5.948377   9.639878   8.264965   5.643398
    37  H   11.372338   7.442119  11.569053   9.906845   7.305349
    38  H   11.330728   7.590759  11.584348  10.354772   7.651447
    39  H   10.871831   6.589395  10.798285   9.980121   7.247782
    40  H    9.733816   5.720527   9.766067   9.233633   6.436932
    41  C   10.147706   6.957193  10.641915   8.411677   6.067533
    42  H    9.458647   6.632724  10.056406   7.627640   5.445885
    43  H   10.975945   7.891340  11.521701   9.335709   7.024377
    44  H   10.573306   7.222756  10.997894   8.565202   6.301158
                   11         12         13         14         15
    11  O    0.000000
    12  O    4.177586   0.000000
    13  H    4.304936   4.843903   0.000000
    14  H    4.174118   5.958744   1.781994   0.000000
    15  H    3.521440   5.701155   2.379189   2.324893   0.000000
    16  H    4.132352   4.632876   2.470421   2.407147   4.061725
    17  H    2.602131   5.611275   3.720559   2.633012   3.442994
    18  H    3.857632   5.934850   5.267027   4.381993   5.618729
    19  H    2.024508   4.358225   5.248490   4.936367   5.130156
    20  H    0.972613   4.296132   3.537297   3.468032   2.558523
    21  H    3.846281   3.810796   4.814245   4.837924   5.819930
    22  H    3.298029   2.039506   5.739141   6.348877   6.015429
    23  H    2.462825   2.072927   4.576240   5.331309   4.523950
    24  H    4.250583   0.967411   4.086286   5.382134   5.133330
    25  H    5.177150   2.736987   5.910647   6.573151   7.168526
    26  O    5.768059   2.576992   6.313128   7.183700   7.626076
    27  H    5.238581   1.616505   5.761383   6.770956   6.961694
    28  H    6.466214   3.322073   7.433060   8.265835   8.618706
    29  C    7.360440   4.438658   9.107541   9.950854   9.906926
    30  O    7.357665   4.320412   8.627901   9.434733   9.718627
    31  C    8.691809   5.327538   9.514237  10.430528  10.813456
    32  C    9.509159   6.116614  10.624000  11.599251  11.758533
    33  C    8.620714   5.284312  10.033511  11.046803  10.930006
    34  H    6.454551   3.573885   8.319285   9.187308   8.977533
    35  H    7.599096   5.191639   9.747200  10.441917  10.411819
    36  H    8.677069   5.008935   9.026486  10.071836  10.472952
    37  H    9.981574   6.883735  11.378955  12.243399  12.443117
    38  H   10.348388   6.727181  11.167238  12.246008  12.402160
    39  H    9.159648   6.038858  10.857036  11.851578  11.593569
    40  H    8.508577   4.858716   9.582198  10.734602  10.530305
    41  C    9.375627   6.367218  10.136549  10.887207  11.546562
    42  H    8.923894   6.081535   9.457132  10.136659  10.965017
    43  H   10.370387   7.192713  10.896383  11.709815  12.409694
    44  H    9.497003   6.814302  10.661123  11.294641  11.925146
                   16         17         18         19         20
    16  H    0.000000
    17  H    2.827708   0.000000
    18  H    3.295381   2.281961   0.000000
    19  H    4.021287   2.734843   2.528239   0.000000
    20  H    3.838991   2.493561   4.208286   2.820433   0.000000
    21  H    2.811769   3.558288   2.559366   2.535145   4.215527
    22  H    5.103389   5.129274   5.168683   3.041678   3.860106
    23  H    4.687852   4.575565   5.392173   3.331216   2.654168
    24  H    4.208021   5.451917   6.023215   4.687855   4.150395
    25  H    4.464388   5.752288   5.000063   4.196355   5.550509
    26  O    5.139234   6.558173   5.956562   4.993251   6.094482
    27  H    4.949581   6.283453   6.033379   4.804685   5.490278
    28  H    6.229126   7.435841   6.671537   5.558224   6.904069
    29  C    8.139472   8.859109   8.175330   6.565139   7.929328
    30  O    7.405374   8.455309   7.567080   6.362842   7.876228
    31  C    8.314074   9.665305   8.734999   7.726533   9.142770
    32  C    9.592607  10.763577   9.921558   8.650147   9.998061
    33  C    9.244232  10.173837   9.582442   7.985347   9.111674
    34  H    7.539257   8.126915   7.675807   5.866896   6.998686
    35  H    8.637241   9.100629   8.257195   6.630763   8.269080
    36  H    7.976994   9.581755   8.810402   7.877084   9.019083
    37  H   10.200575  11.215511  10.211799   8.968811  10.548012
    38  H   10.241250  11.585386  10.805474   9.579784  10.776580
    39  H   10.135259  10.874827  10.315402   8.571307   9.692011
    40  H    9.020558  10.100025   9.715389   8.093972   8.896550
    41  C    8.623033  10.023729   8.781106   8.142636   9.864020
    42  H    7.815115   9.331236   8.021953   7.631356   9.375518
    43  H    9.423655  10.973918   9.734575   9.174226  10.822327
    44  H    9.050254  10.193742   8.823459   8.134741  10.073772
                   21         22         23         24         25
    21  H    0.000000
    22  H    3.436444   0.000000
    23  H    4.055084   1.778163   0.000000
    24  H    4.016209   2.838711   2.326915   0.000000
    25  H    2.465081   2.934813   4.072025   3.246087   0.000000
    26  O    3.412984   3.164246   4.271744   3.126395   0.982413
    27  H    3.557606   2.625910   3.472149   2.207835   1.534821
    28  H    4.209976   3.515742   4.899485   4.029842   1.813913
    29  C    5.951150   4.087913   5.601528   5.322396   3.850082
    30  O    5.215607   4.244286   5.766504   5.099347   2.948913
    31  C    6.317843   5.600070   6.998973   5.982306   3.955496
    32  C    7.550039   6.261997   7.660856   6.835978   5.197335
    33  C    7.256951   5.323719   6.636599   6.069502   4.975910
    34  H    5.495903   3.161536   4.589656   4.494003   3.549174
    35  H    6.230251   4.440268   6.080306   6.118685   4.382510
    36  H    6.299651   5.679129   6.871309   5.526570   3.866691
    37  H    7.962030   6.758530   8.282739   7.660151   5.742407
    38  H    8.370622   7.109909   8.390231   7.360741   5.953253
    39  H    8.087967   5.884268   7.181782   6.855520   5.909512
    40  H    7.314741   5.266500   6.344494   5.545326   4.983031
    41  C    6.510743   6.491616   7.977967   6.982952   4.412005
    42  H    5.782380   6.270229   7.694855   6.618600   3.844505
    43  H    7.450134   7.473015   8.901362   7.750532   5.330859
    44  H    6.710498   6.620741   8.232180   7.516973   4.789116
                   26         27         28         29         30
    26  O    0.000000
    27  H    1.000870   0.000000
    28  H    1.165382   1.831769   0.000000
    29  C    3.295453   3.494521   2.268210   0.000000
    30  O    2.385775   2.959787   1.220871   1.464759   0.000000
    31  C    3.252528   3.872203   2.259563   2.406218   1.466548
    32  C    4.456368   4.876526   3.392616   2.370078   2.356017
    33  C    4.224077   4.359312   3.229599   1.517456   2.356515
    34  H    3.043609   2.952243   2.314705   1.090276   2.075240
    35  H    4.020242   4.303410   2.976327   1.090062   2.065028
    36  H    3.028608   3.556516   2.339304   3.021156   2.075565
    37  H    5.127037   5.631417   3.991976   2.744665   2.813639
    38  H    5.133210   5.506912   4.177191   3.345298   3.288976
    39  H    5.210885   5.281484   4.213467   2.168828   3.292114
    40  H    4.121339   4.071398   3.339603   2.156842   2.808291
    41  C    3.958140   4.800632   3.088456   3.575736   2.421829
    42  H    3.535328   4.474714   2.915944   4.036589   2.657996
    43  H    4.812290   5.621304   4.005563   4.391433   3.353216
    44  H    4.467835   5.309728   3.497276   3.566833   2.636306
                   31         32         33         34         35
    31  C    0.000000
    32  C    1.518417   0.000000
    33  C    2.377544   1.530992   0.000000
    34  H    3.215886   3.327934   2.208071   0.000000
    35  H    3.002899   2.816933   2.181387   1.785699   0.000000
    36  H    1.092001   2.180211   2.834167   3.579207   3.836825
    37  H    2.156387   1.092077   2.168766   3.813733   2.761424
    38  H    2.167425   1.089084   2.200722   4.199807   3.867597
    39  H    3.351039   2.199979   1.089181   2.751294   2.429851
    40  H    2.753679   2.170429   1.092395   2.424968   3.060335
    41  C    1.540000   2.575547   3.743306   4.439960   3.827783
    42  H    2.148263   3.479619   4.455149   4.727823   4.338026
    43  H    2.148263   2.843181   4.240074   5.293577   4.676721
    44  H    2.148263   2.792565   3.886034   4.512118   3.501851
                   36         37         38         39         40
    36  H    0.000000
    37  H    3.056584   0.000000
    38  H    2.419439   1.775048   0.000000
    39  H    3.881958   2.454948   2.708730   0.000000
    40  H    2.783105   3.064404   2.458644   1.776273   0.000000
    41  C    2.174769   2.652667   3.081183   4.575917   4.265228
    42  H    2.464135   3.663624   3.992133   5.374320   4.861041
    43  H    2.520662   2.894219   2.981835   5.010521   4.686582
    44  H    3.050130   2.460088   3.473809   4.545015   4.629979
                   41         42         43         44
    41  C    0.000000
    42  H    1.070000   0.000000
    43  H    1.070000   1.747303   0.000000
    44  H    1.070000   1.747303   1.747303   0.000000
 Stoichiometry    C11H25O8(1+)
 Framework group  C1[X(C11H25O8)]
 Deg. of freedom   126
 Full point group                 C1      NOp   1
 Largest Abelian subgroup         C1      NOp   1
 Largest concise Abelian subgroup C1      NOp   1
                         Standard orientation:                         
 ---------------------------------------------------------------------
 Center     Atomic      Atomic             Coordinates (Angstroms)
 Number     Number       Type             X           Y           Z
 ---------------------------------------------------------------------
      1          6           0        3.468781    0.690735   -0.850792
      2          6           0        3.609452    1.042467    0.642292
      3          6           0        2.690860    0.022108    1.340354
      4          6           0        1.585803   -0.115176    0.271155
      5          8           0        2.285447   -0.124830   -0.948248
      6          6           0        4.636687   -0.060006   -1.446587
      7          6           0        0.764046   -1.389694    0.331168
      8          8           0        4.891325   -1.212144   -0.648693
      9          8           0        3.095437    2.364649    0.802928
     10          8           0        0.700402    0.996766    0.337084
     11          8           0        3.331325   -1.190656    1.615518
     12          8           0       -0.015422   -1.552946   -0.858397
     13          1           0        4.391083   -0.351528   -2.471688
     14          1           0        5.506436    0.603698   -1.462216
     15          1           0        5.683778   -1.659924   -0.962522
     16          1           0        3.320921    1.611771   -1.421361
     17          1           0        4.639781    0.971767    0.996683
     18          1           0        3.282501    2.665727    1.700695
     19          1           0        2.287728    0.413647    2.275633
     20          1           0        3.915317   -1.410845    0.869564
     21          1           0        1.225425    1.806831    0.443282
     22          1           0        0.067379   -1.346190    1.168913
     23          1           0        1.428703   -2.243125    0.458865
     24          1           0        0.592057   -1.585876   -1.610574
     25          1           0       -0.958096    0.961058   -0.327127
     26          8           0       -1.644956    0.442602   -0.801008
     27          1           0       -1.167133   -0.422922   -0.956872
     28          1           0       -2.665535    0.354220   -0.245381
     29          6           0       -4.001172   -0.982094    1.009655
     30          8           0       -3.757329    0.272975    0.294908
     31          6           0       -4.887221    0.585774   -0.586150
     32          6           0       -5.976680   -0.378961   -0.152614
     33          6           0       -5.175156   -1.609239    0.280872
     34          1           0       -3.080799   -1.565768    0.978980
     35          1           0       -4.241258   -0.719416    2.039991
     36          1           0       -4.562361    0.407852   -1.613416
     37          1           0       -6.532129    0.031507    0.693332
     38          1           0       -6.671667   -0.584501   -0.965540
     39          1           0       -5.737527   -2.279213    0.929862
     40          1           0       -4.827758   -2.167257   -0.591629
     41          6           0       -5.226999    2.074169   -0.384080
     42          1           0       -4.384267    2.673029   -0.659886
     43          1           0       -6.065307    2.334874   -0.995777
     44          1           0       -5.467503    2.248747    0.643821
 ---------------------------------------------------------------------
 Rotational constants (GHZ):           0.8183667           0.1272578           0.1217659
 Standard basis: 6-311++G(d,p) (5D, 7F)
 There are   612 symmetry adapted cartesian basis functions of A   symmetry.
 There are   593 symmetry adapted basis functions of A   symmetry.
   593 basis functions,   909 primitive gaussians,   612 cartesian basis functions
    77 alpha electrons       77 beta electrons
       nuclear repulsion energy      1675.2655328221 Hartrees.
 NAtoms=   44 NActive=   44 NUniq=   44 SFac= 1.00D+00 NAtFMM=   60 NAOKFM=F Big=F
 Integral buffers will be    131072 words long.
 Raffenetti 2 integral format.
 Two-electron integral symmetry is turned on.
 Using the following non-standard input for PCM:
 Eps=6.97
 EpsInf=1.976836
 HbondAcidity=0.0
 HbondBasicity=0.53
 SurfaceTensionAtInterface=35.3496992
 CarbonAromaticity=0.0
 ElectronegativeHalogenicity=0.0
 --- end of non-standard input.
 ------------------------------------------------------------------------------
 Polarizable Continuum Model (PCM)
 =================================
 Model                : PCM.
 Atomic radii         : SMD-Coulomb.
 Polarization charges : Total charges.
 Charge compensation  : None.
 Solution method      : On-the-fly selection.
 Cavity type          : VdW (van der Waals Surface) (Alpha=1.000).
 Cavity algorithm     : GePol (No added spheres)
                        Default sphere list used, NSphG=   44.
                        Lebedev-Laikov grids with approx.  5.0 points / Ang**2.
                        Smoothing algorithm: York/Karplus (Gamma=1.0000).
                        Polarization charges: spherical gaussians, with
                                              point-specific exponents (IZeta= 3).
                        Self-potential: point-specific (ISelfS= 7).
                        Self-field    : sphere-specific E.n sum rule (ISelfD= 2).
 1st derivatives      : Analytical E(r).r(x)/FMM algorithm (CHGder, D1EAlg=3).
                        Cavity 1st derivative terms included.
 Solvent              : Generic,
                        Eps                           =   6.970000
                        Eps(infinity)                 =   1.976836
                        RSolv                         =   0.000000 Ang.
                        Molar volume                  =   0.000000 cm**3/mol
                        Thermal expansion coefficient =   0.000000 K**-1
                        Absolute temperature          = 298.150000 K
                        Numeral density               =   0.000000 Ang**-3
                        Hydrogen bond acidity         =   0.000000
                        Hydrogen bond basicity        =   0.530000
                        Surface tension at interface  =  35.349699 (cal/mol)*Ang**-2
                        Carbon aromaticity            =   0.000000
                        Electronegative halogenicity  =   0.000000
 ------------------------------------------------------------------------------
 ------------------------------------------------------------------------------
 Atomic radii for non-electrostatic terms: SMD-CDS.
 ------------------------------------------------------------------------------
 Nuclear repulsion after PCM non-electrostatic terms =     1675.2556957632 Hartrees.
 One-electron integrals computed using PRISM.
 NBasis=   593 RedAO= T EigKep=  1.97D-06  NBF=   593
 NBsUse=   593 1.00D-06 EigRej= -1.00D+00 NBFU=   593
 ExpMin= 3.60D-02 ExpMax= 8.59D+03 ExpMxC= 1.30D+03 IAcc=3 IRadAn=         5 AccDes= 0.00D+00
 Harris functional with IExCor= 1009 and IRadAn=       5 diagonalized for initial guess.
 HarFok:  IExCor= 1009 AccDes= 0.00D+00 IRadAn=         5 IDoV= 1 UseB2=F ITyADJ=14
 ICtDFT=  3500011 ScaDFX=  1.000000  1.000000  1.000000  1.000000
 FoFCou: FMM=F IPFlag=           0 FMFlag=      100000 FMFlg1=           0
         NFxFlg=           0 DoJE=T BraDBF=F KetDBF=T FulRan=T
         wScrn=  0.000000 ICntrl=       500 IOpCl=  0 I1Cent=   200000004 NGrid=           0
         NMat0=    1 NMatS0=      1 NMatT0=    0 NMatD0=    1 NMtDS0=    0 NMtDT0=    0
 Petite list used in FoFCou.
 Requested convergence on RMS density matrix=1.00D-08 within 400 cycles.
 Requested convergence on MAX density matrix=1.00D-06.
 Requested convergence on             energy=1.00D-06.
 No special actions if energy rises.
 Inv3:  Mode=1 IEnd=    24094668.
 Iteration    1 A*A^-1 deviation from unit magnitude is 3.11D-15 for    224.
 Iteration    1 A*A^-1 deviation from orthogonality  is 2.11D-15 for    860    675.
 Iteration    1 A^-1*A deviation from unit magnitude is 3.11D-15 for    224.
 Iteration    1 A^-1*A deviation from orthogonality  is 2.11D-14 for   1116   1082.
 Error on total polarization charges =  0.03594
 SCF Done:  E(RM062X) =  -1035.76875494     A.U. after   14 cycles
            NFock= 14  Conv=0.11D-08     -V/T= 2.0035
 SMD-CDS (non-electrostatic) energy       (kcal/mol) =      -6.17
 (included in total energy above)
 QCSCF skips out because SCF is already converged.

 **********************************************************************

            Population analysis using the SCF Density.

 **********************************************************************

 Orbital symmetries:
       Occupied  (A) (A) (A) (A) (A) (A) (A) (A) (A) (A) (A) (A)
                 (A) (A) (A) (A) (A) (A) (A) (A) (A) (A) (A) (A)
                 (A) (A) (A) (A) (A) (A) (A) (A) (A) (A) (A) (A)
                 (A) (A) (A) (A) (A) (A) (A) (A) (A) (A) (A) (A)
                 (A) (A) (A) (A) (A) (A) (A) (A) (A) (A) (A) (A)
                 (A) (A) (A) (A) (A) (A) (A) (A) (A) (A) (A) (A)
                 (A) (A) (A) (A) (A)
       Virtual   (A) (A) (A) (A) (A) (A) (A) (A) (A) (A) (A) (A)
                 (A) (A) (A) (A) (A) (A) (A) (A) (A) (A) (A) (A)
                 (A) (A) (A) (A) (A) (A) (A) (A) (A) (A) (A) (A)
                 (A) (A) (A) (A) (A) (A) (A) (A) (A) (A) (A) (A)
                 (A) (A) (A) (A) (A) (A) (A) (A) (A) (A) (A) (A)
                 (A) (A) (A) (A) (A) (A) (A) (A) (A) (A) (A) (A)
                 (A) (A) (A) (A) (A) (A) (A) (A) (A) (A) (A) (A)
                 (A) (A) (A) (A) (A) (A) (A) (A) (A) (A) (A) (A)
                 (A) (A) (A) (A) (A) (A) (A) (A) (A) (A) (A) (A)
                 (A) (A) (A) (A) (A) (A) (A) (A) (A) (A) (A) (A)
                 (A) (A) (A) (A) (A) (A) (A) (A) (A) (A) (A) (A)
                 (A) (A) (A) (A) (A) (A) (A) (A) (A) (A) (A) (A)
                 (A) (A) (A) (A) (A) (A) (A) (A) (A) (A) (A) (A)
                 (A) (A) (A) (A) (A) (A) (A) (A) (A) (A) (A) (A)
                 (A) (A) (A) (A) (A) (A) (A) (A) (A) (A) (A) (A)
                 (A) (A) (A) (A) (A) (A) (A) (A) (A) (A) (A) (A)
                 (A) (A) (A) (A) (A) (A) (A) (A) (A) (A) (A) (A)
                 (A) (A) (A) (A) (A) (A) (A) (A) (A) (A) (A) (A)
                 (A) (A) (A) (A) (A) (A) (A) (A) (A) (A) (A) (A)
                 (A) (A) (A) (A) (A) (A) (A) (A) (A) (A) (A) (A)
                 (A) (A) (A) (A) (A) (A) (A) (A) (A) (A) (A) (A)
                 (A) (A) (A) (A) (A) (A) (A) (A) (A) (A) (A) (A)
                 (A) (A) (A) (A) (A) (A) (A) (A) (A) (A) (A) (A)
                 (A) (A) (A) (A) (A) (A) (A) (A) (A) (A) (A) (A)
                 (A) (A) (A) (A) (A) (A) (A) (A) (A) (A) (A) (A)
                 (A) (A) (A) (A) (A) (A) (A) (A) (A) (A) (A) (A)
                 (A) (A) (A) (A) (A) (A) (A) (A) (A) (A) (A) (A)
                 (A) (A) (A) (A) (A) (A) (A) (A) (A) (A) (A) (A)
                 (A) (A) (A) (A) (A) (A) (A) (A) (A) (A) (A) (A)
                 (A) (A) (A) (A) (A) (A) (A) (A) (A) (A) (A) (A)
                 (A) (A) (A) (A) (A) (A) (A) (A) (A) (A) (A) (A)
                 (A) (A) (A) (A) (A) (A) (A) (A) (A) (A) (A) (A)
                 (A) (A) (A) (A) (A) (A) (A) (A) (A) (A) (A) (A)
                 (A) (A) (A) (A) (A) (A) (A) (A) (A) (A) (A) (A)
                 (A) (A) (A) (A) (A) (A) (A) (A) (A) (A) (A) (A)
                 (A) (A) (A) (A) (A) (A) (A) (A) (A) (A) (A) (A)
                 (A) (A) (A) (A) (A) (A) (A) (A) (A) (A) (A) (A)
                 (A) (A) (A) (A) (A) (A) (A) (A) (A) (A) (A) (A)
                 (A) (A) (A) (A) (A) (A) (A) (A) (A) (A) (A) (A)
                 (A) (A) (A) (A) (A) (A) (A) (A) (A) (A) (A) (A)
                 (A) (A) (A) (A) (A) (A) (A) (A) (A) (A) (A) (A)
                 (A) (A) (A) (A) (A) (A) (A) (A) (A) (A) (A) (A)
                 (A) (A) (A) (A) (A) (A) (A) (A) (A) (A) (A) (A)
 The electronic state is 1-A.
 Alpha  occ. eigenvalues --  -19.70017 -19.69404 -19.67668 -19.66544 -19.66469
 Alpha  occ. eigenvalues --  -19.66270 -19.65757 -19.63718 -10.67435 -10.62282
 Alpha  occ. eigenvalues --  -10.62126 -10.61888 -10.61699 -10.61622 -10.61585
 Alpha  occ. eigenvalues --  -10.60782 -10.55554 -10.55374 -10.53509  -1.24721
 Alpha  occ. eigenvalues --   -1.23783  -1.20913  -1.19132  -1.18334  -1.18326
 Alpha  occ. eigenvalues --   -1.16669  -1.16000  -0.92306  -0.90970  -0.89559
 Alpha  occ. eigenvalues --   -0.88804  -0.83409  -0.79424  -0.76902  -0.72776
 Alpha  occ. eigenvalues --   -0.72540  -0.70666  -0.69646  -0.67838  -0.67540
 Alpha  occ. eigenvalues --   -0.66474  -0.65589  -0.63543  -0.61980  -0.61201
 Alpha  occ. eigenvalues --   -0.60633  -0.59352  -0.57072  -0.56368  -0.55335
 Alpha  occ. eigenvalues --   -0.54428  -0.53921  -0.52936  -0.52651  -0.51990
 Alpha  occ. eigenvalues --   -0.51743  -0.50549  -0.50359  -0.49395  -0.48659
 Alpha  occ. eigenvalues --   -0.47869  -0.46745  -0.46221  -0.45974  -0.45121
 Alpha  occ. eigenvalues --   -0.44160  -0.43820  -0.43421  -0.41882  -0.41823
 Alpha  occ. eigenvalues --   -0.40999  -0.40432  -0.39898  -0.38785  -0.38590
 Alpha  occ. eigenvalues --   -0.37551  -0.34790
 Alpha virt. eigenvalues --   -0.01997  -0.00933  -0.00873  -0.00382   0.00121
 Alpha virt. eigenvalues --    0.00320   0.00783   0.01545   0.01768   0.01991
 Alpha virt. eigenvalues --    0.02137   0.02616   0.03095   0.03328   0.03540
 Alpha virt. eigenvalues --    0.04219   0.04390   0.05069   0.05747   0.06074
 Alpha virt. eigenvalues --    0.06446   0.06604   0.06634   0.07209   0.07838
 Alpha virt. eigenvalues --    0.07991   0.08140   0.08259   0.08907   0.09208
 Alpha virt. eigenvalues --    0.09980   0.10101   0.10753   0.10977   0.11167
 Alpha virt. eigenvalues --    0.11409   0.11609   0.11644   0.11998   0.12201
 Alpha virt. eigenvalues --    0.12334   0.12753   0.12971   0.13193   0.13260
 Alpha virt. eigenvalues --    0.13867   0.14171   0.14185   0.14429   0.14635
 Alpha virt. eigenvalues --    0.14773   0.15043   0.15165   0.15752   0.15977
 Alpha virt. eigenvalues --    0.16219   0.16496   0.16621   0.16801   0.16998
 Alpha virt. eigenvalues --    0.17469   0.17884   0.18380   0.18757   0.18850
 Alpha virt. eigenvalues --    0.19085   0.19572   0.19981   0.20189   0.20562
 Alpha virt. eigenvalues --    0.20729   0.21126   0.21386   0.21657   0.21778
 Alpha virt. eigenvalues --    0.22239   0.22506   0.23160   0.23363   0.23818
 Alpha virt. eigenvalues --    0.24244   0.24509   0.25062   0.25349   0.25816
 Alpha virt. eigenvalues --    0.26080   0.26524   0.26569   0.26621   0.27264
 Alpha virt. eigenvalues --    0.27695   0.27920   0.28202   0.28499   0.29054
 Alpha virt. eigenvalues --    0.29398   0.29587   0.30140   0.30270   0.30801
 Alpha virt. eigenvalues --    0.31006   0.31169   0.31400   0.31572   0.32308
 Alpha virt. eigenvalues --    0.32477   0.32723   0.33037   0.33573   0.33868
 Alpha virt. eigenvalues --    0.34268   0.34374   0.34520   0.34702   0.34984
 Alpha virt. eigenvalues --    0.35212   0.35846   0.35997   0.36387   0.36686
 Alpha virt. eigenvalues --    0.37079   0.37578   0.37752   0.38069   0.38301
 Alpha virt. eigenvalues --    0.38900   0.39150   0.39563   0.40192   0.40316
 Alpha virt. eigenvalues --    0.41288   0.41860   0.42114   0.42617   0.43499
 Alpha virt. eigenvalues --    0.44734   0.45691   0.46714   0.47539   0.47762
 Alpha virt. eigenvalues --    0.48497   0.48878   0.49957   0.50727   0.50907
 Alpha virt. eigenvalues --    0.51944   0.53510   0.54268   0.54765   0.55931
 Alpha virt. eigenvalues --    0.56484   0.57424   0.58176   0.59339   0.59570
 Alpha virt. eigenvalues --    0.60480   0.60974   0.61358   0.62151   0.62492
 Alpha virt. eigenvalues --    0.62550   0.63409   0.63850   0.64218   0.65298
 Alpha virt. eigenvalues --    0.65915   0.66370   0.66568   0.67000   0.67518
 Alpha virt. eigenvalues --    0.68477   0.68997   0.69878   0.70318   0.71156
 Alpha virt. eigenvalues --    0.71581   0.71741   0.72337   0.72700   0.73354
 Alpha virt. eigenvalues --    0.73979   0.74263   0.74922   0.75071   0.75763
 Alpha virt. eigenvalues --    0.77013   0.77260   0.77476   0.78272   0.79037
 Alpha virt. eigenvalues --    0.79567   0.80049   0.80725   0.81535   0.81600
 Alpha virt. eigenvalues --    0.82131   0.82231   0.83029   0.83913   0.84571
 Alpha virt. eigenvalues --    0.87326   0.87914   0.92671   0.95156   0.96200
 Alpha virt. eigenvalues --    0.98129   0.98783   0.99214   1.02990   1.04533
 Alpha virt. eigenvalues --    1.05504   1.06001   1.06755   1.07473   1.09652
 Alpha virt. eigenvalues --    1.09720   1.10710   1.12705   1.13338   1.14515
 Alpha virt. eigenvalues --    1.15896   1.17117   1.17620   1.18868   1.19334
 Alpha virt. eigenvalues --    1.19776   1.20205   1.21357   1.22111   1.23822
 Alpha virt. eigenvalues --    1.24525   1.25234   1.26335   1.26721   1.27164
 Alpha virt. eigenvalues --    1.28076   1.28609   1.29923   1.31415   1.31734
 Alpha virt. eigenvalues --    1.32773   1.33304   1.34835   1.36955   1.37625
 Alpha virt. eigenvalues --    1.39122   1.39792   1.40700   1.41295   1.42195
 Alpha virt. eigenvalues --    1.45022   1.45639   1.46809   1.47221   1.48365
 Alpha virt. eigenvalues --    1.49296   1.51183   1.52901   1.53063   1.53631
 Alpha virt. eigenvalues --    1.54429   1.55497   1.56034   1.56245   1.56969
 Alpha virt. eigenvalues --    1.57577   1.58215   1.59040   1.59667   1.60398
 Alpha virt. eigenvalues --    1.61647   1.62258   1.63007   1.63233   1.63669
 Alpha virt. eigenvalues --    1.63877   1.64600   1.65256   1.65417   1.66710
 Alpha virt. eigenvalues --    1.67117   1.67346   1.67879   1.68439   1.69431
 Alpha virt. eigenvalues --    1.70087   1.70245   1.71277   1.72432   1.72924
 Alpha virt. eigenvalues --    1.73096   1.74352   1.75144   1.76020   1.76427
 Alpha virt. eigenvalues --    1.77130   1.78676   1.79133   1.79779   1.80597
 Alpha virt. eigenvalues --    1.81949   1.82901   1.83014   1.84141   1.84845
 Alpha virt. eigenvalues --    1.86646   1.86936   1.87449   1.87941   1.89171
 Alpha virt. eigenvalues --    1.90784   1.90930   1.91538   1.92540   1.94155
 Alpha virt. eigenvalues --    1.94230   1.96508   1.97789   1.99028   1.99415
 Alpha virt. eigenvalues --    1.99664   2.00272   2.03120   2.05156   2.05638
 Alpha virt. eigenvalues --    2.06269   2.07563   2.08069   2.09517   2.09787
 Alpha virt. eigenvalues --    2.11784   2.12270   2.14372   2.16366   2.17012
 Alpha virt. eigenvalues --    2.18021   2.18579   2.18895   2.21342   2.22012
 Alpha virt. eigenvalues --    2.22460   2.24164   2.24607   2.25166   2.26139
 Alpha virt. eigenvalues --    2.28106   2.28859   2.29363   2.32658   2.34136
 Alpha virt. eigenvalues --    2.35138   2.35636   2.36069   2.38497   2.41388
 Alpha virt. eigenvalues --    2.44357   2.45162   2.48216   2.51200   2.53954
 Alpha virt. eigenvalues --    2.54823   2.55583   2.56228   2.57088   2.57317
 Alpha virt. eigenvalues --    2.58900   2.60133   2.60317   2.61138   2.62097
 Alpha virt. eigenvalues --    2.62395   2.64301   2.65257   2.65764   2.67215
 Alpha virt. eigenvalues --    2.68000   2.69141   2.69295   2.70497   2.71490
 Alpha virt. eigenvalues --    2.71703   2.74619   2.74798   2.77619   2.79268
 Alpha virt. eigenvalues --    2.81203   2.81379   2.82678   2.83660   2.85475
 Alpha virt. eigenvalues --    2.86289   2.87746   2.88194   2.89967   2.91384
 Alpha virt. eigenvalues --    2.91696   2.92891   2.93104   2.94439   2.95012
 Alpha virt. eigenvalues --    2.96097   2.97621   2.98603   2.99477   3.01287
 Alpha virt. eigenvalues --    3.02264   3.04082   3.05420   3.06070   3.08065
 Alpha virt. eigenvalues --    3.09239   3.13203   3.14227   3.16074   3.16919
 Alpha virt. eigenvalues --    3.17374   3.19012   3.19252   3.19744   3.21176
 Alpha virt. eigenvalues --    3.23597   3.24842   3.25212   3.26104   3.27464
 Alpha virt. eigenvalues --    3.28983   3.30670   3.30959   3.33162   3.33593
 Alpha virt. eigenvalues --    3.35279   3.36756   3.38410   3.39934   3.41019
 Alpha virt. eigenvalues --    3.41876   3.42453   3.45679   3.48085   3.53958
 Alpha virt. eigenvalues --    3.62506   3.68279   3.72848   3.84371   3.84649
 Alpha virt. eigenvalues --    3.85455   3.89023   3.89816   3.90050   3.90558
 Alpha virt. eigenvalues --    3.92117   3.93145   3.94924   3.95318   3.97420
 Alpha virt. eigenvalues --    3.99332   3.99586   4.01726   4.02884   4.05665
 Alpha virt. eigenvalues --    4.06163   4.07919   4.10851   4.16351   4.16916
 Alpha virt. eigenvalues --    4.21798   4.24364   4.26721   4.26950   4.28128
 Alpha virt. eigenvalues --    4.33534   4.37534   4.42494   5.16716   5.17748
 Alpha virt. eigenvalues --    5.21504   5.22104   5.25295   5.25705   5.29849
 Alpha virt. eigenvalues --    5.31731   5.46795   5.48493   5.52641   5.53096
 Alpha virt. eigenvalues --    5.56290   5.58505   5.61411   5.62730   5.68893
 Alpha virt. eigenvalues --    5.70068   5.74490   5.75902   5.79770   5.81631
 Alpha virt. eigenvalues --    5.92675   6.05325  23.78782  23.86634  23.86764
 Alpha virt. eigenvalues --   23.90299  23.92020  23.92912  23.94471  23.97859
 Alpha virt. eigenvalues --   23.98938  24.00015  24.09858  49.97199  50.00772
 Alpha virt. eigenvalues --   50.02088  50.03037  50.05062  50.07654  50.10473
 Alpha virt. eigenvalues --   50.12683
          Condensed to atoms (all electrons):
               1          2          3          4          5          6
     1  C   10.714668  -3.407602   2.270540  -3.261287   0.285098  -1.315460
     2  C   -3.407602  10.764848  -3.690957   2.900125  -0.177899   0.418587
     3  C    2.270540  -3.690957  12.507122  -6.157348   0.108392   0.042802
     4  C   -3.261287   2.900125  -6.157348  17.787475  -0.011668   0.250976
     5  O    0.285098  -0.177899   0.108392  -0.011668   8.121392  -0.094658
     6  C   -1.315460   0.418587   0.042802   0.250976  -0.094658   6.311609
     7  C    0.189819  -0.592928   0.685911  -4.780966  -0.222826  -0.028955
     8  O    0.012469  -0.094300   0.119714  -0.126488   0.018426   0.125834
     9  O   -0.216635   0.405502  -0.095685  -0.180030   0.013656   0.014056
    10  O    0.044558  -0.010740  -0.025695  -0.026828  -0.025281   0.006069
    11  O    0.004428  -0.178341   0.580481  -0.276525  -0.000604   0.002282
    12  O    0.015250  -0.034658   0.053705  -0.143528  -0.019266  -0.006215
    13  H   -0.073381  -0.023587   0.025819  -0.006024  -0.022720   0.449083
    14  H   -0.007429   0.006054   0.002849  -0.035790   0.021366   0.419648
    15  H   -0.073927   0.017739  -0.002249   0.012067   0.002443   0.070941
    16  H    0.493509  -0.153935   0.048972  -0.011910  -0.035105  -0.072535
    17  H    0.073218   0.243539   0.103423  -0.150985  -0.005832  -0.034253
    18  H   -0.073240   0.114225  -0.100142   0.089900  -0.000530   0.000918
    19  H    0.013168  -0.039173   0.318963   0.062548   0.025693   0.014405
    20  H    0.058601   0.033842  -0.105110   0.127144   0.005783  -0.027880
    21  H    0.008155  -0.018532  -0.000635   0.083018  -0.014265  -0.011085
    22  H   -0.029914  -0.001092  -0.080590   0.086835   0.019559   0.006734
    23  H    0.052966  -0.038420   0.010105  -0.085766  -0.025916  -0.023316
    24  H    0.005443   0.004873  -0.018190   0.014411   0.019956  -0.001520
    25  H   -0.028412   0.022802  -0.072536  -0.016496  -0.007051   0.002851
    26  O    0.018345  -0.010109  -0.044003   0.227321   0.003046   0.000390
    27  H   -0.010810  -0.009802   0.001667  -0.175235  -0.003213   0.000649
    28  H   -0.005553   0.008324   0.056739   0.006369  -0.005075  -0.001639
    29  C   -0.001074   0.000385  -0.006304   0.012342   0.000258   0.000166
    30  O    0.000513  -0.000967   0.000091   0.004479   0.000283  -0.000031
    31  C   -0.000008   0.001498  -0.005366   0.009562   0.000405   0.000152
    32  C   -0.000262  -0.000083   0.001361   0.000867  -0.000048  -0.000028
    33  C    0.000573   0.000215  -0.003603   0.007431   0.000000  -0.000083
    34  H    0.001336  -0.001212   0.008337  -0.047647   0.000358   0.000106
    35  H   -0.000145   0.000021   0.000055  -0.000058  -0.000002   0.000013
    36  H    0.000292   0.000119  -0.000743   0.002340   0.000065   0.000039
    37  H   -0.000001   0.000009   0.000047   0.000019  -0.000001   0.000002
    38  H   -0.000003   0.000003  -0.000015   0.000017  -0.000002  -0.000002
    39  H    0.000009  -0.000014  -0.000079   0.000649   0.000002  -0.000002
    40  H   -0.000051   0.000065  -0.000149   0.001088  -0.000015   0.000013
    41  C    0.000030  -0.000837  -0.000124  -0.011885   0.000012  -0.000016
    42  H    0.000149  -0.000260  -0.000010   0.001538   0.000037  -0.000012
    43  H   -0.000003  -0.000015  -0.000022  -0.000225   0.000004   0.000000
    44  H   -0.000011   0.000068   0.000005   0.000170  -0.000003  -0.000000
               7          8          9         10         11         12
     1  C    0.189819   0.012469  -0.216635   0.044558   0.004428   0.015250
     2  C   -0.592928  -0.094300   0.405502  -0.010740  -0.178341  -0.034658
     3  C    0.685911   0.119714  -0.095685  -0.025695   0.580481   0.053705
     4  C   -4.780966  -0.126488  -0.180030  -0.026828  -0.276525  -0.143528
     5  O   -0.222826   0.018426   0.013656  -0.025281  -0.000604  -0.019266
     6  C   -0.028955   0.125834   0.014056   0.006069   0.002282  -0.006215
     7  C   11.051954   0.010768   0.053046  -0.216411  -0.047832   0.041265
     8  O    0.010768   8.256290   0.005586   0.002872  -0.003010  -0.001102
     9  O    0.053046   0.005586   8.003369   0.030412   0.023981   0.000070
    10  O   -0.216411   0.002872   0.030412   8.198653   0.023704   0.031943
    11  O   -0.047832  -0.003010   0.023981   0.023704   7.797028   0.002229
    12  O    0.041265  -0.001102   0.000070   0.031943   0.002229   8.164463
    13  H   -0.012874  -0.054383  -0.001063   0.002529   0.003125   0.001059
    14  H    0.009560  -0.073288  -0.002136  -0.001647  -0.001196  -0.000589
    15  H   -0.002614   0.200836  -0.000047  -0.000047   0.000956  -0.000026
    16  H   -0.007315   0.010910  -0.006821  -0.000489  -0.002566   0.000058
    17  H    0.000308   0.009245   0.003608   0.004156  -0.009407   0.000570
    18  H    0.016000   0.000127   0.279248  -0.008538   0.002697  -0.000161
    19  H   -0.163250   0.000364  -0.028308   0.016032  -0.059416  -0.004213
    20  H   -0.078254  -0.040120  -0.002073  -0.002203   0.289559  -0.001067
    21  H   -0.012360  -0.000042  -0.017126   0.215903  -0.001139   0.004359
    22  H    0.341297   0.001152  -0.000465  -0.004645  -0.010407  -0.064130
    23  H    0.386575  -0.003719   0.001340   0.013114   0.037578   0.011617
    24  H    0.007720   0.000071  -0.000419  -0.005881  -0.001398   0.243168
    25  H    0.057188  -0.000055  -0.001851   0.021512  -0.002196   0.000235
    26  O   -0.246692  -0.000023   0.001829   0.022955  -0.000261  -0.020807
    27  H    0.201541   0.000013  -0.000178   0.005806  -0.000812   0.007994
    28  H    0.024862  -0.000099  -0.000481  -0.031835   0.001234   0.024757
    29  C   -0.012286   0.000002   0.000044   0.005693   0.000049   0.000405
    30  O   -0.000787   0.000000   0.000029  -0.001316  -0.000003  -0.004117
    31  C   -0.013268   0.000002  -0.000029  -0.002048  -0.000018  -0.004715
    32  C    0.005117   0.000000   0.000002  -0.000765   0.000012  -0.000192
    33  C   -0.014008  -0.000003   0.000008  -0.000297  -0.000001   0.004084
    34  H    0.052151   0.000026  -0.000061  -0.000353  -0.000285  -0.003819
    35  H    0.001153   0.000001   0.000012   0.000204  -0.000000   0.000014
    36  H   -0.004664  -0.000000   0.000013   0.000549  -0.000009  -0.000751
    37  H    0.000025   0.000000  -0.000001  -0.000025  -0.000000  -0.000011
    38  H   -0.000048  -0.000000  -0.000000  -0.000014   0.000000   0.000034
    39  H   -0.000987  -0.000000   0.000001   0.000036   0.000002   0.000383
    40  H   -0.000567   0.000000  -0.000003  -0.000043  -0.000001  -0.001116
    41  C    0.009273   0.000000   0.000008   0.002595  -0.000008  -0.000395
    42  H   -0.000213   0.000000  -0.000002  -0.000272   0.000001  -0.000135
    43  H    0.000271   0.000000   0.000000   0.000008   0.000000  -0.000045
    44  H   -0.000052  -0.000000   0.000000  -0.000038   0.000000   0.000015
              13         14         15         16         17         18
     1  C   -0.073381  -0.007429  -0.073927   0.493509   0.073218  -0.073240
     2  C   -0.023587   0.006054   0.017739  -0.153935   0.243539   0.114225
     3  C    0.025819   0.002849  -0.002249   0.048972   0.103423  -0.100142
     4  C   -0.006024  -0.035790   0.012067  -0.011910  -0.150985   0.089900
     5  O   -0.022720   0.021366   0.002443  -0.035105  -0.005832  -0.000530
     6  C    0.449083   0.419648   0.070941  -0.072535  -0.034253   0.000918
     7  C   -0.012874   0.009560  -0.002614  -0.007315   0.000308   0.016000
     8  O   -0.054383  -0.073288   0.200836   0.010910   0.009245   0.000127
     9  O   -0.001063  -0.002136  -0.000047  -0.006821   0.003608   0.279248
    10  O    0.002529  -0.001647  -0.000047  -0.000489   0.004156  -0.008538
    11  O    0.003125  -0.001196   0.000956  -0.002566  -0.009407   0.002697
    12  O    0.001059  -0.000589  -0.000026   0.000058   0.000570  -0.000161
    13  H    0.555163  -0.062655   0.002345  -0.004008   0.006600  -0.001168
    14  H   -0.062655   0.535097  -0.009320  -0.004949  -0.014434   0.001493
    15  H    0.002345  -0.009320   0.424538  -0.001964  -0.002947  -0.000111
    16  H   -0.004008  -0.004949  -0.001964   0.425961   0.008434  -0.001206
    17  H    0.006600  -0.014434  -0.002947   0.008434   0.473032  -0.027236
    18  H   -0.001168   0.001493  -0.000111  -0.001206  -0.027236   0.412881
    19  H    0.000899  -0.000212   0.000331   0.003068  -0.006853  -0.006939
    20  H   -0.006307   0.003721   0.004153   0.001103  -0.014573   0.001852
    21  H    0.000020  -0.000485   0.000001   0.008361   0.006087  -0.009336
    22  H    0.000254   0.000072   0.000213  -0.000876  -0.003044   0.000980
    23  H    0.001121  -0.001490  -0.001642   0.001541   0.006617  -0.001040
    24  H   -0.002152   0.000410   0.000119   0.000437  -0.000228   0.000009
    25  H   -0.000713   0.000623   0.000043   0.001297  -0.000388  -0.000027
    26  O    0.000109  -0.000011   0.000003  -0.001060  -0.000613   0.000208
    27  H    0.000324   0.000201  -0.000002   0.001039  -0.000366   0.000136
    28  H    0.000272  -0.000302  -0.000002   0.000173   0.000880  -0.000357
    29  C    0.000022   0.000002  -0.000002  -0.000074  -0.000027  -0.000005
    30  O   -0.000001   0.000002  -0.000000   0.000047  -0.000018  -0.000008
    31  C   -0.000026   0.000013   0.000001   0.000005  -0.000001   0.000005
    32  C    0.000008  -0.000002  -0.000001   0.000024   0.000007  -0.000010
    33  C   -0.000016   0.000001   0.000001   0.000041   0.000010   0.000000
    34  H   -0.000035   0.000021   0.000002  -0.000051  -0.000055   0.000055
    35  H    0.000002  -0.000000  -0.000000  -0.000009  -0.000004   0.000001
    36  H   -0.000007   0.000002   0.000000  -0.000032  -0.000003   0.000004
    37  H    0.000000   0.000000   0.000000  -0.000001  -0.000000   0.000001
    38  H   -0.000000  -0.000000   0.000000   0.000002   0.000000  -0.000000
    39  H   -0.000000  -0.000000  -0.000000  -0.000001   0.000000  -0.000000
    40  H    0.000000   0.000000   0.000000   0.000001  -0.000002  -0.000001
    41  C    0.000004   0.000000   0.000000   0.000006  -0.000022   0.000010
    42  H   -0.000003   0.000001  -0.000000  -0.000018  -0.000015   0.000028
    43  H   -0.000000   0.000000  -0.000000   0.000001  -0.000001   0.000000
    44  H    0.000000  -0.000000   0.000000   0.000002   0.000003  -0.000007
              19         20         21         22         23         24
     1  C    0.013168   0.058601   0.008155  -0.029914   0.052966   0.005443
     2  C   -0.039173   0.033842  -0.018532  -0.001092  -0.038420   0.004873
     3  C    0.318963  -0.105110  -0.000635  -0.080590   0.010105  -0.018190
     4  C    0.062548   0.127144   0.083018   0.086835  -0.085766   0.014411
     5  O    0.025693   0.005783  -0.014265   0.019559  -0.025916   0.019956
     6  C    0.014405  -0.027880  -0.011085   0.006734  -0.023316  -0.001520
     7  C   -0.163250  -0.078254  -0.012360   0.341297   0.386575   0.007720
     8  O    0.000364  -0.040120  -0.000042   0.001152  -0.003719   0.000071
     9  O   -0.028308  -0.002073  -0.017126  -0.000465   0.001340  -0.000419
    10  O    0.016032  -0.002203   0.215903  -0.004645   0.013114  -0.005881
    11  O   -0.059416   0.289559  -0.001139  -0.010407   0.037578  -0.001398
    12  O   -0.004213  -0.001067   0.004359  -0.064130   0.011617   0.243168
    13  H    0.000899  -0.006307   0.000020   0.000254   0.001121  -0.002152
    14  H   -0.000212   0.003721  -0.000485   0.000072  -0.001490   0.000410
    15  H    0.000331   0.004153   0.000001   0.000213  -0.001642   0.000119
[...]
 001312,0.00004767,-0.00003444,-0.00002521,-0.00004586,-0.00000519,0.00
 002476,-0.00000045,-0.00000008,-0.00000206,0.00003776,0.00000626,0.000
 02921,-0.00000512,-0.00000074,0.00000472,-0.00001402,-0.00001811,-0.00
 000106,-0.00010507,-0.00002347,-0.00002733,-0.00001973,0.00000403,-0.0
 0000740,-0.00009148,0.00008332,-0.00001783,0.00000031,0.00000078,0.000
 00044,-0.00000286,0.00000083,0.00000026,0.00000110,-0.00000069,0.00000
 017,-0.00000346,-0.00000256,0.00000109,-0.00000246,-0.00000202,0.00000
 052,0.00000323,0.00000478,-0.00000083,0.00000137,0.00000223,0.00000160
 ,0.00000855,-0.00000152,-0.00000378,-0.00000401,0.00003503,-0.00000989
 ,-0.00000044,-0.00000209,0.00000839,-0.00000909,0.00000010,-0.00000391
 ,0.00000347,-0.00000518,-0.00002423,0.00010578,0.00016903,0.00011308,-
 0.00146605,-0.00009939,0.00071223,0.00011865,-0.00022120,0.00001017,0.
 00210117,0.00101006,-0.00162202,-0.00540901,-0.00097525,0.00130730,-0.
 01421058,0.03267437,-0.01585234,-0.07795276,0.01111664,0.00816497,0.01
 003515,-0.02501304,0.00326003,-0.00456415,-0.00332297,0.00210211,0.000
 58861,0.00124490,-0.00100426,0.00010758,0.00018792,-0.00017172,0.00008
 633,0.01059428,0.00008609,0.00102590,0.00010666,-0.00091866,-0.0003835
 7,-0.00005658,-0.00041065,0.00119801,-0.00110289,0.00089390,0.00012826
 ,-0.00012163,-0.00005070,0.58293475,-0.00000507,-0.00000037,-0.0000011
 5,-0.00000186,0.00000116,0.00000038,-0.00000338,0.00000307,0.00000026,
 -0.00000807,0.00001275,0.00000555,0.00000951,-0.00000289,-0.00000316,-
 0.00000172,0.00000045,-0.00000007,0.00000224,-0.00000064,0.00000433,0.
 00000346,-0.00000189,-0.00000061,0.00000665,-0.00000065,-0.00000033,0.
 00000023,-0.00002336,-0.00000041,0.00000550,-0.00000347,0.00000057,-0.
 00000008,0.00000028,-0.00000278,-0.00000005,-0.00000015,0.00000024,0.0
 0000046,-0.00000005,0.00000008,-0.00000105,0.00000047,0.,-0.00000071,0
 .00000024,0.00000024,0.00000091,-0.00000050,0.00000030,-0.00000395,-0.
 00000132,0.00000012,-0.00000060,-0.00000110,-0.00000121,-0.00000243,0.
 00000109,0.00000142,-0.00000943,0.00000551,-0.00000369,0.00000041,0.00
 000164,-0.00000044,-0.00000043,-0.00000088,0.00000005,-0.00000129,0.00
 000127,-0.00000059,-0.00001296,0.00010598,0.00001005,-0.00026848,-0.00
 006781,0.00013212,0.00001501,-0.00002633,-0.00001281,0.00086156,-0.000
 00493,-0.00053730,0.00021686,0.00034997,-0.00061864,0.00510151,-0.0050
 0144,0.00577871,0.02026248,-0.22600219,0.00376910,0.00057187,-0.019546
 77,0.00299907,-0.00221204,-0.00093357,0.00023805,0.00001061,-0.0000056
 1,0.00011121,0.00003123,0.00009624,-0.00012621,0.00117498,-0.01303711,
 0.00126248,0.00176903,0.00140055,-0.00105550,0.00016389,-0.00004810,-0
 .00015956,0.00039893,-0.00037394,0.00016568,-0.00000764,-0.00006400,0.
 00008329,0.02095737,0.50985983,0.00002251,0.00000955,-0.00000079,0.000
 00420,-0.00000337,-0.00000468,0.00001040,0.00000122,0.00001422,0.00006
 906,-0.00006909,-0.00002413,-0.00004980,0.00000479,0.00003245,0.000001
 29,-0.00000409,-0.00000361,0.00002366,0.00000001,0.00000673,-0.0000073
 1,0.00000519,0.00000552,-0.00002373,-0.00000474,-0.00000155,-0.0001133
 8,0.00002477,-0.00003027,-0.00002346,0.00001163,-0.00000858,-0.0000800
 9,0.00011042,0.00001746,-0.00000020,0.00000103,0.00000083,-0.00000207,
 0.00000093,0.00000025,0.00000106,-0.00000200,-0.00000077,-0.00000108,-
 0.00000285,-0.00000081,-0.00000322,-0.00000016,0.00000009,0.00000527,0
 .00000343,0.00000217,0.00000112,0.00000146,0.00000241,0.00000950,-0.00
 000367,-0.00000529,0.00001707,0.00001519,-0.00000107,0.00000098,0.0000
 0162,0.00001035,-0.00000571,0.00000242,-0.00000143,-0.00000811,-0.0000
 1046,-0.00003301,0.00015086,0.00003267,0.00009169,-0.00126895,0.000261
 78,0.00076508,0.00002285,-0.00026688,-0.00007293,0.00155415,0.00002858
 ,-0.00155593,-0.00378814,0.00061716,0.00010919,-0.01207848,0.02972559,
 -0.00909107,0.00704546,-0.00846693,-0.07797521,-0.00039997,0.01267061,
 -0.00144555,0.00078742,0.00096491,-0.00104168,0.00027398,0.00094426,-0
 .00101149,0.00006426,0.00017910,-0.00028423,0.00537211,-0.02869282,0.0
 0537698,-0.00064759,0.00080198,0.00097855,0.00030273,0.00026269,-0.000
 19369,-0.00008002,0.00057945,0.00001827,-0.00023403,0.00030480,0.00010
 513,-0.00438862,0.00747300,0.59048628,-0.00000609,-0.00000382,0.000001
 01,0.00000039,-0.00000367,0.00000144,-0.00000168,-0.00000212,-0.000003
 61,-0.00001476,0.00000968,0.00000698,0.00001247,0.00000319,-0.00000505
 ,0.00000014,-0.00000123,0.00000195,-0.00000798,-0.00000220,-0.00000689
 ,0.00000085,0.00000164,-0.00000224,0.00000280,0.00000607,-0.00000011,0
 .00002453,0.00000126,0.00000897,0.00000493,0.00000110,0.00000058,0.000
 02288,-0.00001646,0.00000167,-0.00000013,-0.00000038,-0.00000029,0.000
 00087,0.00000002,-0.00000021,-0.00000017,-0.00000019,0.00000018,0.0000
 0063,0.00000117,-0.00000057,0.00000059,0.00000064,-0.00000014,-0.00000
 025,-0.00000212,0.00000021,-0.00000005,-0.00000021,-0.00000036,-0.0000
 0188,-0.00000018,0.00000134,-0.00000113,-0.00000756,-0.00000043,0.0000
 0012,-0.00000031,-0.00000157,0.00000148,-0.00000016,0.00000086,-0.0000
 0074,-0.00000056,0.00000653,-0.00003767,-0.00003532,-0.00002659,0.0001
 2551,0.00019880,0.00006193,-0.00003551,0.00005724,0.00002232,-0.000256
 82,-0.00003267,0.00017843,0.00013778,-0.00010947,0.00001307,0.00130881
 ,-0.00077874,0.00039532,0.00579239,0.00533544,-0.00416896,0.00031250,0
 .00133806,-0.00013676,0.00022815,0.00035283,-0.00028127,0.00000048,-0.
 00002877,0.00003069,-0.00001580,-0.00002019,0.00002112,0.00045969,-0.0
 0070292,-0.00004195,0.00005493,0.00003881,-0.00013872,0.00005251,0.000
 11061,-0.00003295,-0.00004641,0.00012478,-0.00003239,0.00002925,-0.000
 03567,0.00003100,-0.22752270,-0.10529829,0.07950001,0.24227271,0.00001
 224,0.00000332,0.00000175,0.00000177,-0.00000082,-0.00000126,0.0000049
 9,-0.00000065,0.00000971,0.00002491,-0.00004273,-0.00000238,-0.0000199
 5,0.00000637,0.00000037,0.00000259,-0.00000352,0.00000192,0.00001094,0
 .00000595,0.00003035,-0.00000445,0.00000530,-0.00000291,-0.00000963,-0
 .00000350,-0.00000411,-0.00005655,0.00002008,-0.00002949,-0.00000940,0
 .00000732,-0.00000698,-0.00005902,0.00006802,-0.00002268,0.00000025,-0
 .00000033,-0.00000072,-0.00000075,0.00000056,-0.00000007,0.00000109,-0
 .00000123,0.00000056,0.00000089,-0.00000038,-0.00000017,-0.00000163,-0
 .00000030,-0.00000037,0.00000124,0.00000269,0.00000226,-0.00000066,-0.
 00000017,-0.00000007,0.00000188,-0.00000160,0.00000031,0.00000637,0.00
 000925,0.00000584,0.00000014,-0.00000577,0.00000124,-0.00000422,0.0000
 0042,-0.00000383,0.00000170,-0.00000644,-0.00000472,0.00013776,-0.0000
 0645,0.00004837,0.00018562,0.00007717,-0.00020801,0.00003835,-0.000167
 90,-0.00003524,-0.00009758,-0.00059775,0.00053909,-0.00050799,-0.00032
 524,0.00021246,0.00007819,0.00214944,-0.00151903,-0.02953821,-0.015918
 86,0.01225789,0.00380860,-0.00474007,0.00005107,-0.00162473,-0.0007633
 4,0.00082724,0.00010111,0.00011827,-0.00003651,0.00003270,0.00002718,0
 .00000372,0.00018860,0.00147470,-0.00027846,0.00017342,0.00012292,-0.0
 0005388,-0.00019415,-0.00014841,-0.00006965,0.00041777,-0.00046024,0.0
 0028888,0.00005276,-0.00004967,-0.00003995,-0.10169072,-0.10789974,0.0
 4386285,0.11267813,0.11854206,-0.00000783,-0.00000391,0.00000258,-0.00
 000519,0.00000983,0.00000339,-0.00000717,0.00000276,-0.00000237,-0.000
 03664,0.00004671,0.00001690,0.00002209,-0.00000823,-0.00002322,-0.0000
 0065,0.00000217,0.00000261,-0.00000026,0.00000156,0.00000425,0.0000030
 3,-0.00000312,-0.00000508,0.00001703,-0.00000893,-0.00000584,0.0000453
 0,-0.00004126,-0.00000762,0.00001178,-0.00001107,0.00000192,0.00002343
 ,-0.00003766,-0.00001173,0.00000047,-0.00000136,-0.00000086,0.00000073
 ,-0.00000037,0.00000029,-0.00000012,0.00000145,0.00000081,0.00000063,0
 .00000165,0.00000118,0.00000155,-0.00000131,-0.00000009,-0.00000787,0.
 00000163,0.00000102,-0.00000109,-0.00000075,-0.00000269,-0.00000477,0.
 00000295,0.00000426,-0.00001844,0.00000556,0.00000902,0.00000138,0.000
 00183,-0.00000301,0.00000094,-0.00000166,-0.00000020,0.00000257,0.0000
 0283,0.00001298,-0.00007211,0.00005095,0.00001412,0.00013796,-0.000237
 04,-0.00004162,-0.00001227,0.00008146,0.00001371,-0.00019346,0.0003554
 0,0.00013033,0.00016690,0.00019923,-0.00024534,0.00054903,-0.00054435,
 0.00027901,-0.00010689,0.00112163,-0.00251003,0.00044823,0.00020543,0.
 00100996,-0.00015567,0.00008356,0.00037319,-0.00002196,-0.00004132,0.0
 0004180,0.00000310,-0.00002864,0.00002968,-0.00068879,0.00011015,0.000
 22075,-0.00033533,0.00005081,0.00030250,0.00023053,0.00040247,-0.00006
 909,0.00002755,-0.00005433,0.00002018,-0.00004850,0.00005626,-0.000058
 06,0.07960416,0.04418409,-0.08176876,-0.08583766,-0.04943911,0.0824833
 8,0.00000941,0.00000464,-0.00000203,0.00000229,-0.00000273,-0.00000219
 ,0.00000451,-0.00000022,0.00000416,0.00002730,-0.00002936,-0.00001341,
 -0.00002062,0.00000287,0.00001609,0.00000037,-0.00000083,-0.00000253,0
 .00000710,0.00000104,0.00000618,-0.00000268,0.00000096,0.00000396,-0.0
 0001102,-0.00000048,0.00000200,-0.00004330,0.00001531,-0.00000444,-0.0
 0000955,0.00000525,-0.00000219,-0.00003423,0.00003931,0.00000416,-0.00
 000009,0.00000088,0.00000080,-0.00000120,0.00000023,-0.00000003,0.0000
 0023,-0.00000069,-0.00000056,-0.00000063,-0.00000154,-0.00000028,-0.00
 000135,0.00000008,0.00000003,0.00000378,0.00000078,-0.00000036,0.00000
 073,0.00000061,0.00000132,0.00000435,-0.00000151,-0.00000300,0.0000086
 9,0.00000418,-0.00000375,-0.00000026,-0.00000088,0.00000264,-0.0000019
 0,0.00000085,-0.00000140,-0.00000103,-0.00000231,-0.00001266,0.0000759
 2,0.00000227,0.00001028,-0.00016298,0.00011853,0.00008967,0.00002254,-
 0.00009665,-0.00001926,0.00036643,-0.00029884,-0.00004276,-0.00028641,
 -0.00030322,0.00058888,0.00121146,0.00104138,-0.00045190,-0.00533591,-
 0.00029138,-0.00262544,0.00015963,-0.00049989,-0.00002377,-0.00006310,
 0.00029644,-0.00006319,0.00006718,0.00009269,-0.00001598,0.00001365,0.
 00001436,-0.00002365,0.00029343,0.00009082,0.00025231,0.00000617,0.000
 27182,0.00002008,0.00016750,0.00002778,0.00000433,0.00003836,0.0000098
 1,0.00002781,-0.00001685,0.00002555,-0.00000578,-0.20360878,0.03362524
 ,-0.13189039,-0.01787156,0.00510101,-0.01597880,0.21772693,-0.00001172
 ,-0.00000640,0.00000173,0.00000047,-0.00000414,0.00000219,-0.00000339,
 -0.00000206,-0.00000888,-0.00002572,0.00001448,0.00000991,0.00002317,0
 .00000446,-0.00001036,0.00000033,0.00000086,0.00000136,-0.00002098,-0.
 00000318,-0.00001786,0.00000254,-0.00000008,-0.00000213,0.00000513,0.0
 0000973,0.00000215,0.00005882,0.00002000,0.00001977,0.00000934,-0.0000
 0009,0.00000374,0.00005317,-0.00005486,0.00000710,-0.00000012,-0.00000
 033,-0.00000024,0.00000120,-0.00000040,-0.00000012,-0.00000046,0.00000
 041,0.00000006,0.00000158,0.00000142,-0.00000035,0.00000129,0.00000133
 ,-0.00000044,0.00000118,-0.00000256,-0.00000086,0.,-0.00000049,-0.0000
 0007,-0.00000401,0.00000045,0.00000157,0.00000476,-0.00002001,0.000002
 12,0.00000010,-0.00000184,-0.00000423,0.00000487,0.00000005,0.00000216
 ,-0.00000013,0.00000456,0.00001559,-0.00007037,-0.00011191,-0.00007215
 ,0.00081546,-0.00000960,-0.00040783,-0.00005778,0.00014463,0.00001544,
 -0.00136435,-0.00025111,0.00098133,0.00183699,0.00042256,-0.00050788,0
 .00351616,-0.00797841,0.00341204,0.02292590,-0.00055491,0.01996492,-0.
 00049516,0.00107632,-0.00037334,0.00034026,0.00036028,-0.00013288,-0.0
 0016889,-0.00044057,0.00042686,-0.00003283,-0.00012976,0.00012070,-0.0
 0027903,0.00093245,-0.00087254,-0.00017642,0.00003602,0.00011271,-0.00
 019539,-0.00029346,0.00011880,-0.00013194,0.00002923,-0.00010125,-0.00
 000377,-0.00001381,-0.00000943,0.03142198,-0.05503980,0.02554057,-0.01
 097903,0.00255596,-0.01087676,-0.03675872,0.05777261,0.00000518,0.0000
 0183,0.00000003,0.00000145,-0.00000106,-0.00000047,0.00000258,-0.00000
 204,0.00000194,0.00001027,-0.00001188,-0.00000277,-0.00000959,0.000001
 27,0.00000321,0.00000105,-0.00000097,0.00000045,0.00000537,0.00000022,
 0.00000440,-0.00000227,0.00000171,-0.00000022,-0.00000524,-0.00000007,
 -0.00000004,-0.00001813,0.00000426,-0.00000596,-0.00000492,0.00000314,
 -0.00000183,-0.00001249,0.00001091,-0.00000329,0.00000015,0.00000011,0
 .00000005,-0.00000058,0.00000008,-0.00000006,0.00000068,-0.00000048,0.
 00000023,-0.00000002,-0.00000051,0.00000021,-0.00000082,-0.00000008,-0
 .00000011,0.00000199,0.00000047,0.00000006,0.00000065,0.00000044,0.000
 00055,0.00000205,-0.00000082,-0.00000055,0.00000298,0.00000254,-0.0000
 0085,-0.00000047,-0.00000061,0.00000103,-0.00000108,0.00000050,-0.0000
 0033,0.00000172,-0.00000214,-0.00000158,0.00000674,0.00002606,0.000018
 00,-0.00019683,-0.00003378,0.00007549,0.00002329,-0.00002736,-0.000001
 23,0.00034313,0.00023718,-0.00026787,0.00007478,-0.00013262,0.00037216
 ,-0.00025969,0.00027268,0.00161613,-0.00078769,-0.00003245,-0.00351251
 ,0.00026890,-0.00030470,0.00047601,-0.00010950,0.00002670,-0.00012833,
 0.00001899,0.00001036,-0.00000452,0.00001796,-0.00002977,0.00000677,-0
 .00000553,0.00050704,0.00001955,-0.00001580,0.00007763,-0.00011098,0.0
 0006099,0.00021561,0.00002342,0.00002584,-0.00002043,0.00000771,0.0000
 2283,-0.00003370,0.00001329,-0.13188980,0.02736057,-0.15472674,0.00944
 642,-0.00316440,0.00788233,0.14431704,-0.03071875,0.16379607,-0.000004
 39,-0.00000240,0.00000215,-0.00000367,0.00000589,0.00000178,-0.0000053
 1,0.00000447,0.00000145,-0.00002063,0.00002249,0.00001029,0.00001263,-
 0.00000401,-0.00001553,-0.00000048,0.00000116,0.00000127,-0.00000041,0
 .00000375,0.00001204,0.00000264,-0.00000213,-0.00000361,0.00001117,-0.
 00000600,-0.00000538,0.00002265,-0.00002086,-0.00001299,0.00000755,-0.
 00000796,-0.00000025,0.00000107,-0.00001042,-0.00001288,0.00000021,-0.
 00000097,-0.00000055,0.00000040,-0.00000009,0.00000016,-0.00000023,0.0
 0000110,0.00000056,0.00000040,0.00000084,0.00000046,0.00000094,-0.0000
 0080,0.00000011,-0.00000662,0.00000089,0.00000167,-0.00000137,-0.00000
 088,-0.00000235,-0.00000384,0.00000237,0.00000332,-0.00001061,0.000004
 34,0.00000831,0.00000175,0.00000088,-0.00000199,0.00000015,-0.00000100
 ,-0.00000155,0.00000124,0.00000212,0.00000610,-0.00000203,0.00000705,0
 .00002510,0.00015789,-0.00001702,-0.00010703,0.00000136,0.00001730,-0.
 00000520,-0.00030550,-0.00003450,0.00028475,0.00013782,0.00023645,-0.0
 0008863,0.00070260,-0.00097043,0.00088381,-0.00355650,0.00427347,0.004
 83046,-0.00004534,-0.00074108,-0.00100969,0.00004690,-0.00009137,0.000
 10711,-0.00001899,-0.00005317,0.00003979,-0.00000114,-0.00001674,0.000
 00683,0.00075759,0.00121565,-0.00017948,0.00021210,-0.00015570,-0.0000
 9342,0.00004652,-0.00017887,0.00001317,-0.00002376,0.00001215,-0.00000
 774,-0.00003762,-0.00001521,0.00002158,-0.06314435,0.02264959,0.059854
 43,-0.00502600,0.01075464,0.02224311,0.00725547,-0.01024447,-0.0213425
 9,0.06283775,-0.00000152,-0.00000147,0.00000089,0.00000056,0.00000034,
 0.00000072,0.00000032,-0.00000020,-0.00000272,0.00000069,-0.00000104,-
 0.00000026,0.00000197,0.00000130,0.00000141,0.00000006,-0.00000025,-0.
 00000037,-0.00000311,-0.00000296,-0.00001323,0.00000009,0.00000073,0.0
 0000060,0.00000017,0.00000048,0.00000029,0.00001011,0.00000397,0.00000
 214,-0.00000001,0.00000049,0.00000138,0.00001206,-0.00000045,0.0000129
 2,-0.00000015,-0.00000014,0.00000009,0.00000022,0.00000010,0.00000002,
 -0.00000025,-0.00000025,-0.00000030,0.00000035,0.00000025,-0.00000007,
 0.00000022,0.00000018,-0.00000009,0.00000033,0.00000039,-0.00000029,0.
 00000053,0.00000064,0.00000060,0.00000018,-0.00000044,-0.00000064,0.00
 000162,-0.00000212,0.00000128,-0.00000043,0.00000080,0.00000046,0.0000
 0112,-0.00000012,0.00000134,-0.00000320,-0.00000082,-0.00000043,-0.000
 01482,-0.00003060,0.00001081,-0.00007109,0.00004472,0.00005464,-0.0000
 3398,0.00000394,-0.00001268,0.00003590,0.00003533,-0.00018433,-0.00007
 228,0.00001221,-0.00011424,-0.00116462,0.00271209,0.00053584,0.0078976
 7,-0.01571744,-0.03281157,0.00134763,0.00151491,-0.00121785,-0.0001488
 4,0.00010608,0.00017133,0.00000587,0.00005004,-0.00002030,0.00004502,-
 0.00004981,0.00005672,0.00112192,-0.00579517,0.00151164,-0.00064792,0.
 00009024,0.00066531,0.00003509,0.00013661,0.00005472,0.00005074,-0.000
 01260,0.00008923,-0.00012522,0.00014072,0.00002321,0.02306025,-0.08375
 188,-0.08691659,-0.00219722,0.00594809,0.01435878,-0.00250546,0.001531
 95,0.00575732,-0.02664055,0.09303117,-0.00000604,-0.00000216,-0.000001
 20,0.00000031,-0.00000277,-0.00000003,-0.00000079,-0.00000059,-0.00000
 520,-0.00000555,0.00000441,-0.00000217,0.00000783,0.00000136,0.0000042
 7,-0.00000147,0.00000080,-0.00000156,-0.00000865,-0.00000378,-0.000014
 58,0.00000268,-0.00000074,0.00000259,0.00000133,0.00000590,0.00000395,
 0.00001686,0.00000552,0.00001523,0.00000351,0.00000056,0.00000366,0.00
 002202,-0.00001440,0.00001388,-0.00000034,0.00000035,0.00000053,0.0000
 0064,0.,0.,-0.00000123,-0.00000020,-0.00000079,-0.00000041,0.00000010,
 -0.00000042,0.00000077,0.00000064,0.00000004,0.00000133,-0.00000231,-0
 .00000157,-0.00000009,0.00000001,0.00000088,-0.00000130,-0.00000026,-0
 .00000128,0.00000019,-0.00000688,-0.00000595,-0.00000053,0.00000024,-0
 .00000045,0.00000162,0.00000006,0.00000165,-0.00000307,0.00000276,-0.0
 0000083,-0.00003192,-0.00002129,-0.00001843,0.00009356,-0.00003603,-0.
 00002253,-0.00001539,0.00003746,-0.00000667,-0.00019405,0.00004049,0.0
 0001575,0.00021918,-0.00003802,-0.00000822,0.00068352,-0.00009975,0.00
 154231,-0.00136484,0.00192742,0.00129347,-0.00022849,0.00032941,0.0009
 5742,-0.00009198,0.00018217,0.00018572,-0.00001573,-0.00003437,0.00003
 642,0.00000116,-0.00003510,0.00002616,-0.00024563,0.00084354,0.0011661
 0,-0.00032939,-0.00027473,0.00007538,0.00000994,0.00014723,0.00005427,
 0.00003109,-0.00007151,0.00000271,-0.00000826,0.00005506,-0.00012225,0
 .06010186,-0.09105648,-0.26874040,0.00098669,-0.00322188,-0.00810652,0
 .00583799,-0.00664447,-0.01554887,-0.06546895,0.09798226,0.28720752\\-
 0.00000092,0.00000052,-0.00000127,-0.00000096,0.00000283,0.00000480,-0
 .00000325,0.00000254,-0.00000120,0.00000272,-0.00000121,-0.00000337,0.
 00000117,-0.00000098,0.00000511,-0.00000335,-0.00000091,-0.00000207,0.
 00000488,-0.00000243,0.00000213,0.00000658,0.00000727,0.00000677,0.000
 00084,-0.00000080,0.00000252,-0.00000082,0.00000127,0.00000082,0.00000
 040,-0.00000502,0.00000111,-0.00000344,0.00001763,-0.00000385,0.000003
 91,0.00000354,0.00000026,0.00000051,0.00000299,0.00000412,-0.00000430,
 -0.00000322,-0.00000383,-0.00000053,0.00000278,0.00000382,-0.00000011,
 -0.00000097,0.00000215,-0.00000130,-0.00000167,0.00000449,-0.00000059,
 -0.00000302,0.00000182,-0.00000112,-0.00000166,-0.00000100,-0.00000091
 ,-0.00000093,0.00000428,-0.00000058,-0.00000369,-0.00000053,-0.0000013
 3,-0.00000112,-0.00000212,0.00000150,-0.00000059,-0.00000086,-0.000007
 56,-0.00000193,0.00000167,0.00003074,0.00003142,-0.00001810,-0.0000083
 1,-0.00002902,0.00000236,-0.00000231,-0.00000820,-0.00000130,-0.000002
 10,0.00000868,-0.00001082,-0.00000362,-0.00000790,0.00002137,-0.000005
 45,0.00000091,-0.00000818,0.00000054,0.00000192,0.00000495,-0.00000039
 ,-0.00000218,-0.00000421,-0.00000072,-0.00000262,0.00000132,-0.0000017
 4,-0.00000375,-0.00000060,0.00000119,0.00000255,-0.00000056,-0.0000012
 3,-0.00000240,-0.00000389,0.00000118,0.00000018,-0.00000401,0.00000094
 ,-0.00000349,-0.00000387,-0.00000022,-0.00000035,-0.00000407,-0.000001
 09,0.00000361,0.00000023,0.00000143,0.00000036,0.00000161,-0.00000019,
 0.00000063,0.00000033,-0.00000008,-0.00000159,0.00000170\\\@


 WE SHOULD BE CAREFUL TO GET OUT OF AN EXPERIENCE ONLY THE WISDOM
 THAT IS IN IT -- AND STOP THERE;
 LEST WE BE LIKE THE CAT THAT SITS DOWN ON A HOT STOVE-LID.
 SHE WILL NEVER SIT DOWN ON A HOT STOVE LID AGAIN;
 BUT ALSO SHE WILL NEVER SIT DOWN ON A COLD ONE ANY MORE.

                                                     -- MARK TWAIN
 Job cpu time:       0 days  8 hours 24 minutes 15.8 seconds.
 Elapsed time:       0 days  0 hours 28 minutes  2.2 seconds.
 File lengths (MBytes):  RWF=   1500 Int=      0 D2E=      0 Chk=     41 Scr=      1
 Normal termination of Gaussian 16 at Wed Jan 23 11:34:08 2019.
