 Entering Gaussian System, Link 0=g16
 Initial command:
 /nopt/nrel/apps/gaussian/G16.sandy/g16/l1.exe "/scratch/ykim/gaussianScratch.6076995/Gau-14537.inp" -scrdir="/scratch/ykim/gaussianScratch.6076995/"
 Default linda workers: n0391
 Default is to use  24 SMP processors on each worker.
 Entering Link 1 = /nopt/nrel/apps/gaussian/G16.sandy/g16/l1.exe PID=     14538.
  
 Copyright (c) 1988,1990,1992,1993,1995,1998,2003,2009,2016,
            Gaussian, Inc.  All Rights Reserved.
  
 This is part of the Gaussian(R) 16 program.  It is based on
 the Gaussian(R) 09 system (copyright 2009, Gaussian, Inc.),
 the Gaussian(R) 03 system (copyright 2003, Gaussian, Inc.),
 the Gaussian(R) 98 system (copyright 1998, Gaussian, Inc.),
 the Gaussian(R) 94 system (copyright 1995, Gaussian, Inc.),
 the Gaussian 92(TM) system (copyright 1992, Gaussian, Inc.),
 the Gaussian 90(TM) system (copyright 1990, Gaussian, Inc.),
 the Gaussian 88(TM) system (copyright 1988, Gaussian, Inc.),
 the Gaussian 86(TM) system (copyright 1986, Carnegie Mellon
 University), and the Gaussian 82(TM) system (copyright 1983,
 Carnegie Mellon University). Gaussian is a federally registered
 trademark of Gaussian, Inc.
  
 This software contains proprietary and confidential information,
 including trade secrets, belonging to Gaussian, Inc.
  
 This software is provided under written license and may be
 used, copied, transmitted, or stored only in accord with that
 written license.
  
 The following legend is applicable only to US Government
 contracts under FAR:
  
                    RESTRICTED RIGHTS LEGEND
  
 Use, reproduction and disclosure by the US Government is
 subject to restrictions as set forth in subparagraphs (a)
 and (c) of the Commercial Computer Software - Restricted
 Rights clause in FAR 52.227-19.
  
 Gaussian, Inc.
 340 Quinnipiac St., Bldg. 40, Wallingford CT 06492
  
  
 ---------------------------------------------------------------
 Warning -- This program may not be used in any manner that
 competes with the business of Gaussian, Inc. or will provide
 assistance to any competitor of Gaussian, Inc.  The licensee
 of this program is prohibited from giving any competitor of
 Gaussian, Inc. access to this program.  By using this program,
 the user acknowledges that Gaussian, Inc. is engaged in the
 business of creating and licensing software in the field of
 computational chemistry and represents and warrants to the
 licensee that it is not a competitor of Gaussian, Inc. and that
 it will not use this program in any manner prohibited above.
 ---------------------------------------------------------------
  

 Cite this work as:
 Gaussian 16, Revision A.03,
 M. J. Frisch, G. W. Trucks, H. B. Schlegel, G. E. Scuseria, 
 M. A. Robb, J. R. Cheeseman, G. Scalmani, V. Barone, 
 G. A. Petersson, H. Nakatsuji, X. Li, M. Caricato, A. V. Marenich, 
 J. Bloino, B. G. Janesko, R. Gomperts, B. Mennucci, H. P. Hratchian, 
 J. V. Ortiz, A. F. Izmaylov, J. L. Sonnenberg, D. Williams-Young, 
 F. Ding, F. Lipparini, F. Egidi, J. Goings, B. Peng, A. Petrone, 
 T. Henderson, D. Ranasinghe, V. G. Zakrzewski, J. Gao, N. Rega, 
 G. Zheng, W. Liang, M. Hada, M. Ehara, K. Toyota, R. Fukuda, 
 J. Hasegawa, M. Ishida, T. Nakajima, Y. Honda, O. Kitao, H. Nakai, 
 T. Vreven, K. Throssell, J. A. Montgomery, Jr., J. E. Peralta, 
 F. Ogliaro, M. J. Bearpark, J. J. Heyd, E. N. Brothers, K. N. Kudin, 
 V. N. Staroverov, T. A. Keith, R. Kobayashi, J. Normand, 
 K. Raghavachari, A. P. Rendell, J. C. Burant, S. S. Iyengar, 
 J. Tomasi, M. Cossi, J. M. Millam, M. Klene, C. Adamo, R. Cammi, 
 J. W. Ochterski, R. L. Martin, K. Morokuma, O. Farkas, 
 J. B. Foresman, and D. J. Fox, Gaussian, Inc., Wallingford CT, 2016.
 
 ******************************************
 Gaussian 16:  ES64L-G16RevA.03 25-Dec-2016
                10-Dec-2018 
 ******************************************
 %nprocshared=24
 Will use up to   24 processors via shared memory.
 %mem=24GB
 SetLPE:    new flags="-opt 'Tsnet.Node.lindarsharg: ssh'  -nodelist 'n0391' -env GAUSS_MDEF=3221225472 -env GAUSS_EXEDIR="/nopt/nrel/apps/gaussian/G16.sandy/g16/bsd:/nopt/nrel/apps/gaussian/G16.sandy/g16/local:/nopt/nrel/apps/gaussian/G16.sandy/g16/extras:/nopt/nrel/apps/gaussian/G16.sandy/g16""
 Will use up to    1 processors via Linda.
 Default route: CacheSize=327680 MaxDisk=128GB
 ----------------------------------------------------------------------
 # opt freq m062x/6-311++g(d,p) scf=(xqc,maxconventionalcycles=400) tem
 perature=443.15 scrf=(smd,solvent=water)
 ----------------------------------------------------------------------
 1/4=327680,18=20,19=15,26=3,38=1,112=443150/1,3;
 2/4=327680,9=110,12=2,17=6,18=5,40=1/2;
 3/4=327680,5=4,6=6,7=1111,11=2,25=1,30=1,70=32201,71=1,72=1,74=-55/1,2,3;
 4/4=327680/1;
 5/4=327680,5=2,8=3,13=1,38=5,53=1,85=400/2,8;
 6/4=327680,7=2,8=2,9=2,10=2,28=1/1;
 7/4=327680/1,2,3,16;
 1/4=327680,18=20,19=15,26=3/3(2);
 2/4=327680,9=110/2;
 99/4=327680/99;
 2/4=327680,9=110/2;
 3/4=327680,5=4,6=6,7=1111,11=2,25=1,30=1,70=32205,71=1,72=1,74=-55/1,2,3;
 4/4=327680,5=5,16=3,69=1/1;
 5/4=327680,5=2,8=3,13=1,38=5,53=1,85=400/2,8;
 7/4=327680/1,2,3,16;
 1/4=327680,18=20,19=15,26=3/3(-5);
 2/4=327680,9=110/2;
 6/4=327680,7=2,8=2,9=2,10=2,19=2,28=1/1;
 99/4=327680,9=1/99;
 -------------------
 Title Card Required
 -------------------
 Symbolic Z-matrix:
 Charge =  1 Multiplicity = 1
 C                     1.16535   0.354    -1.06178 
 C                     1.43105   1.14106   0.23538 
 C                     0.59568   0.39292   1.29473 
 C                    -0.58914  -0.04518   0.4102 
 O                    -0.04136  -0.4051   -0.80305 
 C                     2.2647   -0.58921  -1.4945 
 C                    -1.45959  -1.17481   0.93187 
 O                     2.62408  -1.39272  -0.3822 
 O                     0.87102   2.441     0.02968 
 O                    -1.45886   1.14176   0.22724 
 O                     1.22962  -0.69936   1.86943 
 O                    -2.33023  -1.66518  -0.08195 
 H                     1.89756  -1.20446  -2.32062 
 H                     3.11566   0.00546  -1.84182 
 H                     3.32424  -2.00902  -0.61447 
 H                     0.96417   1.05952  -1.87144 
 H                     2.48882   1.18879   0.49779 
 H                     1.2292    3.06925   0.66575 
 H                     0.27006   1.06184   2.09337 
 H                     1.7943   -1.1365    1.20969 
 H                    -0.90646   1.92416   0.00581 
 H                    -2.08202  -0.81725   1.75234 
 H                    -0.80502  -1.96242   1.30368 
 H                    -1.81873  -2.19018  -0.7082 
 H                    -3.05015   0.71762  -0.77378 
 O                    -3.84156   0.36037  -1.24933 
 H                    -3.782    -0.60564  -1.05141 
 H                    -4.71762   0.70579  -1.04123 
 O                    -6.49804   1.40781  -0.6183 
 H                    -6.99695   1.88465  -1.28561 
 H                    -6.87117   1.2748    0.25616 
 
 Add virtual bond connecting atoms H25        and O10        Dist= 3.64D+00.
 Add virtual bond connecting atoms H27        and O12        Dist= 3.86D+00.
 Add virtual bond connecting atoms O29        and H28        Dist= 3.70D+00.

 GradGradGradGradGradGradGradGradGradGradGradGradGradGradGradGradGradGrad
 Berny optimization.
 Initialization pass.
                           ----------------------------
                           !    Initial Parameters    !
                           ! (Angstroms and Degrees)  !
 --------------------------                            --------------------------
 ! Name  Definition              Value          Derivative Info.                !
 --------------------------------------------------------------------------------
 ! R1    R(1,2)                  1.5404         estimate D2E/DX2                !
 ! R2    R(1,5)                  1.4489         estimate D2E/DX2                !
 ! R3    R(1,6)                  1.5118         estimate D2E/DX2                !
 ! R4    R(1,16)                 1.0926         estimate D2E/DX2                !
 ! R5    R(2,3)                  1.5426         estimate D2E/DX2                !
 ! R6    R(2,9)                  1.4303         estimate D2E/DX2                !
 ! R7    R(2,17)                 1.0909         estimate D2E/DX2                !
 ! R8    R(3,4)                  1.5421         estimate D2E/DX2                !
 ! R9    R(3,11)                 1.3875         estimate D2E/DX2                !
 ! R10   R(3,19)                 1.0915         estimate D2E/DX2                !
 ! R11   R(4,5)                  1.379          estimate D2E/DX2                !
 ! R12   R(4,7)                  1.5185         estimate D2E/DX2                !
 ! R13   R(4,10)                 1.4828         estimate D2E/DX2                !
 ! R14   R(6,8)                  1.4184         estimate D2E/DX2                !
 ! R15   R(6,13)                 1.0935         estimate D2E/DX2                !
 ! R16   R(6,14)                 1.0947         estimate D2E/DX2                !
 ! R17   R(7,12)                 1.4235         estimate D2E/DX2                !
 ! R18   R(7,22)                 1.0901         estimate D2E/DX2                !
 ! R19   R(7,23)                 1.0895         estimate D2E/DX2                !
 ! R20   R(8,15)                 0.9613         estimate D2E/DX2                !
 ! R21   R(9,18)                 0.9631         estimate D2E/DX2                !
 ! R22   R(10,21)                0.983          estimate D2E/DX2                !
 ! R23   R(10,25)                1.9272         estimate D2E/DX2                !
 ! R24   R(11,20)                0.9722         estimate D2E/DX2                !
 ! R25   R(12,24)                0.9641         estimate D2E/DX2                !
 ! R26   R(12,27)                2.0421         estimate D2E/DX2                !
 ! R27   R(25,26)                0.99           estimate D2E/DX2                !
 ! R28   R(26,27)                0.9879         estimate D2E/DX2                !
 ! R29   R(26,28)                0.9644         estimate D2E/DX2                !
 ! R30   R(28,29)                1.96           estimate D2E/DX2                !
 ! R31   R(29,30)                0.96           estimate D2E/DX2                !
 ! R32   R(29,31)                0.96           estimate D2E/DX2                !
 ! A1    A(2,1,5)              105.128          estimate D2E/DX2                !
 ! A2    A(2,1,6)              115.7472         estimate D2E/DX2                !
 ! A3    A(2,1,16)             109.018          estimate D2E/DX2                !
 ! A4    A(5,1,6)              109.2612         estimate D2E/DX2                !
 ! A5    A(5,1,16)             108.4985         estimate D2E/DX2                !
 ! A6    A(6,1,16)             108.9452         estimate D2E/DX2                !
 ! A7    A(1,2,3)              103.7146         estimate D2E/DX2                !
 ! A8    A(1,2,9)              106.0059         estimate D2E/DX2                !
 ! A9    A(1,2,17)             113.0902         estimate D2E/DX2                !
 ! A10   A(3,2,9)              109.1172         estimate D2E/DX2                !
 ! A11   A(3,2,17)             112.4026         estimate D2E/DX2                !
 ! A12   A(9,2,17)             111.9927         estimate D2E/DX2                !
 ! A13   A(2,3,4)               99.2036         estimate D2E/DX2                !
 ! A14   A(2,3,11)             114.7586         estimate D2E/DX2                !
 ! A15   A(2,3,19)             111.5187         estimate D2E/DX2                !
 ! A16   A(4,3,11)             111.4051         estimate D2E/DX2                !
 ! A17   A(4,3,19)             111.3824         estimate D2E/DX2                !
 ! A18   A(11,3,19)            108.402          estimate D2E/DX2                !
 ! A19   A(3,4,5)              105.8781         estimate D2E/DX2                !
 ! A20   A(3,4,7)              117.046          estimate D2E/DX2                !
 ! A21   A(3,4,10)             107.0979         estimate D2E/DX2                !
 ! A22   A(5,4,7)              109.621          estimate D2E/DX2                !
 ! A23   A(5,4,10)             109.4726         estimate D2E/DX2                !
 ! A24   A(7,4,10)             107.5566         estimate D2E/DX2                !
 ! A25   A(1,5,4)              110.5611         estimate D2E/DX2                !
 ! A26   A(1,6,8)              108.2528         estimate D2E/DX2                !
 ! A27   A(1,6,13)             108.8517         estimate D2E/DX2                !
 ! A28   A(1,6,14)             108.4912         estimate D2E/DX2                !
 ! A29   A(8,6,13)             111.0241         estimate D2E/DX2                !
 ! A30   A(8,6,14)             111.0737         estimate D2E/DX2                !
 ! A31   A(13,6,14)            109.0829         estimate D2E/DX2                !
 ! A32   A(4,7,12)             111.2348         estimate D2E/DX2                !
 ! A33   A(4,7,22)             109.989          estimate D2E/DX2                !
 ! A34   A(4,7,23)             108.0962         estimate D2E/DX2                !
 ! A35   A(12,7,22)            107.4458         estimate D2E/DX2                !
 ! A36   A(12,7,23)            111.1915         estimate D2E/DX2                !
 ! A37   A(22,7,23)            108.8622         estimate D2E/DX2                !
 ! A38   A(6,8,15)             110.9932         estimate D2E/DX2                !
 ! A39   A(2,9,18)             110.6257         estimate D2E/DX2                !
 ! A40   A(4,10,21)            109.591          estimate D2E/DX2                !
 ! A41   A(4,10,25)            111.8526         estimate D2E/DX2                !
 ! A42   A(21,10,25)           121.4772         estimate D2E/DX2                !
 ! A43   A(3,11,20)            109.7703         estimate D2E/DX2                !
 ! A44   A(7,12,24)            109.0095         estimate D2E/DX2                !
 ! A45   A(7,12,27)            126.4556         estimate D2E/DX2                !
 ! A46   A(24,12,27)           110.5702         estimate D2E/DX2                !
 ! A47   A(25,26,27)           102.0307         estimate D2E/DX2                !
 ! A48   A(25,26,28)           119.5549         estimate D2E/DX2                !
 ! A49   A(27,26,28)           111.2097         estimate D2E/DX2                !
 ! A50   A(12,27,26)           130.1917         estimate D2E/DX2                !
 ! A51   A(28,29,30)           120.0            estimate D2E/DX2                !
 ! A52   A(28,29,31)           120.0            estimate D2E/DX2                !
 ! A53   A(30,29,31)           120.0            estimate D2E/DX2                !
 ! A54   L(10,25,26,12,-1)     171.4972         estimate D2E/DX2                !
 ! A55   L(26,28,29,22,-1)     180.0            estimate D2E/DX2                !
 ! A56   L(10,25,26,12,-2)     179.5793         estimate D2E/DX2                !
 ! A57   L(26,28,29,22,-2)     180.0            estimate D2E/DX2                !
 ! D1    D(5,1,2,3)             18.4578         estimate D2E/DX2                !
 ! D2    D(5,1,2,9)            -96.422          estimate D2E/DX2                !
 ! D3    D(5,1,2,17)           140.4975         estimate D2E/DX2                !
 ! D4    D(6,1,2,3)           -102.1904         estimate D2E/DX2                !
 ! D5    D(6,1,2,9)            142.9299         estimate D2E/DX2                !
 ! D6    D(6,1,2,17)            19.8493         estimate D2E/DX2                !
 ! D7    D(16,1,2,3)           134.6145         estimate D2E/DX2                !
 ! D8    D(16,1,2,9)            19.7348         estimate D2E/DX2                !
 ! D9    D(16,1,2,17)         -103.3458         estimate D2E/DX2                !
 ! D10   D(2,1,5,4)              6.8437         estimate D2E/DX2                !
 ! D11   D(6,1,5,4)            131.6738         estimate D2E/DX2                !
 ! D12   D(16,1,5,4)          -109.6695         estimate D2E/DX2                !
 ! D13   D(2,1,6,8)             49.9261         estimate D2E/DX2                !
 ! D14   D(2,1,6,13)           170.7091         estimate D2E/DX2                !
 ! D15   D(2,1,6,14)           -70.7061         estimate D2E/DX2                !
 ! D16   D(5,1,6,8)            -68.4624         estimate D2E/DX2                !
 ! D17   D(5,1,6,13)            52.3205         estimate D2E/DX2                !
 ! D18   D(5,1,6,14)           170.9053         estimate D2E/DX2                !
 ! D19   D(16,1,6,8)           173.1594         estimate D2E/DX2                !
 ! D20   D(16,1,6,13)          -66.0576         estimate D2E/DX2                !
 ! D21   D(16,1,6,14)           52.5272         estimate D2E/DX2                !
 ! D22   D(1,2,3,4)            -33.6138         estimate D2E/DX2                !
 ! D23   D(1,2,3,11)            85.1938         estimate D2E/DX2                !
 ! D24   D(1,2,3,19)          -151.0593         estimate D2E/DX2                !
 ! D25   D(9,2,3,4)             79.0291         estimate D2E/DX2                !
 ! D26   D(9,2,3,11)          -162.1633         estimate D2E/DX2                !
 ! D27   D(9,2,3,19)           -38.4165         estimate D2E/DX2                !
 ! D28   D(17,2,3,4)          -156.1101         estimate D2E/DX2                !
 ! D29   D(17,2,3,11)          -37.3025         estimate D2E/DX2                !
 ! D30   D(17,2,3,19)           86.4444         estimate D2E/DX2                !
 ! D31   D(1,2,9,18)          -162.1871         estimate D2E/DX2                !
 ! D32   D(3,2,9,18)            86.6836         estimate D2E/DX2                !
 ! D33   D(17,2,9,18)          -38.4164         estimate D2E/DX2                !
 ! D34   D(2,3,4,5)             39.1342         estimate D2E/DX2                !
 ! D35   D(2,3,4,7)            161.6277         estimate D2E/DX2                !
 ! D36   D(2,3,4,10)           -77.616          estimate D2E/DX2                !
 ! D37   D(11,3,4,5)           -82.1447         estimate D2E/DX2                !
 ! D38   D(11,3,4,7)            40.3488         estimate D2E/DX2                !
 ! D39   D(11,3,4,10)          161.1051         estimate D2E/DX2                !
 ! D40   D(19,3,4,5)           156.6827         estimate D2E/DX2                !
 ! D41   D(19,3,4,7)           -80.8238         estimate D2E/DX2                !
 ! D42   D(19,3,4,10)           39.9325         estimate D2E/DX2                !
 ! D43   D(2,3,11,20)          -34.5176         estimate D2E/DX2                !
 ! D44   D(4,3,11,20)           77.196          estimate D2E/DX2                !
 ! D45   D(19,3,11,20)        -159.9075         estimate D2E/DX2                !
 ! D46   D(3,4,5,1)            -29.6853         estimate D2E/DX2                !
 ! D47   D(7,4,5,1)           -156.7911         estimate D2E/DX2                !
 ! D48   D(10,4,5,1)            85.4519         estimate D2E/DX2                !
 ! D49   D(3,4,7,12)          -167.8588         estimate D2E/DX2                !
 ! D50   D(3,4,7,22)            73.2201         estimate D2E/DX2                !
 ! D51   D(3,4,7,23)           -45.5166         estimate D2E/DX2                !
 ! D52   D(5,4,7,12)           -47.3196         estimate D2E/DX2                !
 ! D53   D(5,4,7,22)          -166.2407         estimate D2E/DX2                !
 ! D54   D(5,4,7,23)            75.0226         estimate D2E/DX2                !
 ! D55   D(10,4,7,12)           71.6265         estimate D2E/DX2                !
 ! D56   D(10,4,7,22)          -47.2946         estimate D2E/DX2                !
 ! D57   D(10,4,7,23)         -166.0313         estimate D2E/DX2                !
 ! D58   D(3,4,10,21)           45.848          estimate D2E/DX2                !
 ! D59   D(3,4,10,25)         -176.4305         estimate D2E/DX2                !
 ! D60   D(5,4,10,21)          -68.5059         estimate D2E/DX2                !
 ! D61   D(5,4,10,25)           69.2156         estimate D2E/DX2                !
 ! D62   D(7,4,10,21)          172.4529         estimate D2E/DX2                !
 ! D63   D(7,4,10,25)          -49.8256         estimate D2E/DX2                !
 ! D64   D(1,6,8,15)          -179.9341         estimate D2E/DX2                !
 ! D65   D(13,6,8,15)           60.6423         estimate D2E/DX2                !
 ! D66   D(14,6,8,15)          -60.9225         estimate D2E/DX2                !
 ! D67   D(4,7,12,24)           74.1861         estimate D2E/DX2                !
 ! D68   D(4,7,12,27)          -61.5841         estimate D2E/DX2                !
 ! D69   D(22,7,12,24)        -165.3805         estimate D2E/DX2                !
 ! D70   D(22,7,12,27)          58.8493         estimate D2E/DX2                !
 ! D71   D(23,7,12,24)         -46.3484         estimate D2E/DX2                !
 ! D72   D(23,7,12,27)         177.8813         estimate D2E/DX2                !
 ! D73   D(4,10,26,27)          20.4892         estimate D2E/DX2                !
 ! D74   D(4,10,26,28)         140.7265         estimate D2E/DX2                !
 ! D75   D(21,10,26,27)        151.9862         estimate D2E/DX2                !
 ! D76   D(21,10,26,28)        -87.7765         estimate D2E/DX2                !
 ! D77   D(7,12,27,26)          28.3427         estimate D2E/DX2                !
 ! D78   D(24,12,27,26)       -106.8755         estimate D2E/DX2                !
 ! D79   D(25,26,27,12)         -5.5279         estimate D2E/DX2                !
 ! D80   D(28,26,27,12)       -134.1134         estimate D2E/DX2                !
 ! D81   D(25,26,29,30)        115.429          estimate D2E/DX2                !
 ! D82   D(25,26,29,31)        -64.571          estimate D2E/DX2                !
 ! D83   D(27,26,29,30)       -126.0766         estimate D2E/DX2                !
 ! D84   D(27,26,29,31)         53.9234         estimate D2E/DX2                !
 --------------------------------------------------------------------------------
 Trust Radius=3.00D-01 FncErr=1.00D-07 GrdErr=1.00D-06 EigMax=2.50D+02 EigMin=1.00D-04
 Number of steps in this run=    183 maximum allowed number of steps=    186.
 GradGradGradGradGradGradGradGradGradGradGradGradGradGradGradGradGradGrad

                          Input orientation:                          
 ---------------------------------------------------------------------
 Center     Atomic      Atomic             Coordinates (Angstroms)
 Number     Number       Type             X           Y           Z
 ---------------------------------------------------------------------
      1          6           0        1.165349    0.354000   -1.061782
      2          6           0        1.431047    1.141056    0.235380
      3          6           0        0.595683    0.392918    1.294731
      4          6           0       -0.589142   -0.045184    0.410204
      5          8           0       -0.041360   -0.405099   -0.803048
      6          6           0        2.264701   -0.589214   -1.494503
      7          6           0       -1.459593   -1.174814    0.931871
      8          8           0        2.624075   -1.392719   -0.382201
      9          8           0        0.871020    2.441001    0.029676
     10          8           0       -1.458860    1.141764    0.227241
     11          8           0        1.229619   -0.699357    1.869433
     12          8           0       -2.330233   -1.665181   -0.081953
     13          1           0        1.897558   -1.204463   -2.320615
     14          1           0        3.115660    0.005463   -1.841822
     15          1           0        3.324235   -2.009025   -0.614465
     16          1           0        0.964168    1.059518   -1.871437
     17          1           0        2.488824    1.188785    0.497786
     18          1           0        1.229196    3.069247    0.665748
     19          1           0        0.270063    1.061836    2.093374
     20          1           0        1.794297   -1.136499    1.209689
     21          1           0       -0.906461    1.924161    0.005811
     22          1           0       -2.082016   -0.817251    1.752337
     23          1           0       -0.805022   -1.962417    1.303677
     24          1           0       -1.818730   -2.190182   -0.708197
     25          1           0       -3.050155    0.717621   -0.773779
     26          8           0       -3.841559    0.360370   -1.249332
     27          1           0       -3.781995   -0.605643   -1.051413
     28          1           0       -4.717617    0.705795   -1.041229
     29          8           0       -6.498041    1.407806   -0.618298
     30          1           0       -6.996954    1.884651   -1.285611
     31          1           0       -6.871173    1.274804    0.256163
 ---------------------------------------------------------------------
                    Distance matrix (angstroms):
                    1          2          3          4          5
     1  C    0.000000
     2  C    1.540351   0.000000
     3  C    2.424704   1.542650   0.000000
     4  C    2.324721   2.349232   1.542119   0.000000
     5  O    1.448903   2.374218   2.333095   1.378979   0.000000
     6  C    1.511779   2.584823   3.395590   3.473945   2.414524
     7  C    3.633489   3.768840   2.610289   1.518514   2.369344
     8  O    2.375024   2.867880   3.180405   3.573307   2.873508
     9  O    2.373496   1.430315   2.422977   2.908262   3.102604
    10  O    3.027974   2.889919   2.433403   1.482812   2.337432
    11  O    3.115399   2.469377   1.387524   2.421814   2.973908
    12  O    4.154064   4.703498   3.833016   2.428581   2.710484
    13  H    2.132979   3.500315   4.161398   3.871043   2.588705
    14  H    2.129238   2.905557   4.042075   4.335867   3.348789
    15  H    3.231837   3.772189   4.106015   4.496792   3.733011
    16  H    1.092598   2.159468   3.256495   2.973050   2.073076
    17  H    2.209232   1.090884   2.202841   3.317262   3.261053
    18  H    3.218851   1.985921   2.821293   3.615430   3.980296
    19  H    3.355231   2.192328   1.091472   2.190157   3.261617
    20  H    2.788681   2.503694   1.945000   2.740607   2.820584
    21  H    2.810259   2.475863   2.502490   2.035324   2.613064
    22  H    4.453816   4.298574   2.973884   2.150833   3.296079
    23  H    3.852732   3.971499   2.740375   2.126189   2.728866
    24  H    3.937336   4.748530   4.063683   2.713618   2.520826
    25  H    4.240948   4.612902   4.204319   2.835537   3.211573
    26  O    5.010424   5.533012   5.114923   3.673792   3.902131
    27  H    5.039567   5.646468   5.066121   3.555946   3.754232
    28  H    5.893511   6.294859   5.812552   4.440150   4.812296
    29  O    7.748208   7.979371   7.416913   6.171231   6.708911
    30  H    8.307598   8.596368   8.156688   6.903630   7.338672
    31  H    8.195764   8.303323   7.590144   6.421060   7.112689
                    6          7          8          9         10
     6  C    0.000000
     7  C    4.483367   0.000000
     8  O    1.418445   4.295418   0.000000
     9  O    3.667107   4.395433   4.235594   0.000000
    10  O    4.452594   2.421371   4.844108   2.674956   0.000000
    11  O    3.521305   2.887376   2.737721   3.657205   3.648896
    12  O    4.926096   1.423486   4.970870   5.207803   2.955306
    13  H    1.093520   4.674399   2.078633   4.457248   4.823058
    14  H    1.094716   5.478993   2.080159   3.804308   5.147663
    15  H    1.978116   5.096280   0.961251   5.122100   5.789122
    16  H    2.133491   4.327285   3.314601   2.351893   3.206599
    17  H    2.679688   4.622232   2.730720   2.098681   3.957223
    18  H    4.373019   5.031149   4.790932   0.963105   3.336634
    19  H    4.424637   3.056698   4.206505   2.553839   2.545195
    20  H    2.798831   3.265953   1.813365   3.878579   4.091298
    21  H    4.315584   3.281339   4.859725   1.851251   0.983016
    22  H    5.430278   1.090150   5.199491   4.722731   2.559684
    23  H    4.374780   1.089505   3.863347   4.880808   3.349949
    24  H    4.455983   1.962084   4.525565   5.406206   3.479427
    25  H    5.520412   3.003405   6.066609   4.357888   1.927215
    26  O    6.184515   3.576059   6.754973   5.307852   2.910000
    27  H    6.062931   3.106593   6.488842   5.665805   3.175743
    28  H    7.115846   4.247886   7.664106   5.949004   3.524001
    29  O    9.030032   5.870171   9.545244   7.469299   5.116548
    30  H    9.588633   6.703724  10.203994   7.996531   5.788876
    31  H    9.487022   5.978495   9.883467   7.832807   5.414025
                   11         12         13         14         15
    11  O    0.000000
    12  O    4.172921   0.000000
    13  H    4.272912   4.806047   0.000000
    14  H    4.222243   5.962042   1.782396   0.000000
    15  H    3.503198   5.689886   2.365095   2.368137   0.000000
    16  H    4.142247   4.634578   2.489696   2.396002   4.070117
    17  H    2.651809   5.630678   3.744411   2.695726   3.487263
    18  H    3.956164   5.970209   5.256393   4.385593   5.640654
    19  H    2.018093   4.350886   5.221891   4.969820   5.107891
    20  H    0.972222   4.354261   3.532468   3.515935   2.535656
    21  H    3.862483   3.862409   4.802402   4.824169   5.809775
    22  H    3.315801   2.035981   5.707528   6.372650   6.020766
    23  H    2.460724   2.081967   4.584095   5.398005   4.553263
    24  H    4.261357   0.964076   4.169212   5.518529   5.147008
    25  H    5.225979   2.583536   5.528740   6.298028   6.934899
    26  O    6.047029   2.783835   6.044321   6.991416   7.574014
    27  H    5.801414   2.042079   5.850366   6.969637   7.256646
    28  H    6.768753   3.498762   7.003317   7.905166   8.498456
    29  O    8.387233   5.205914   8.955887   9.792182  10.399609
    30  H    9.181933   5.985681   9.472391  10.300761  11.051610
    31  H    8.492513   5.420145   9.469804  10.283462  10.746528
                   16         17         18         19         20
    16  H    0.000000
    17  H    2.820373   0.000000
    18  H    3.247546   2.269584   0.000000
    19  H    4.025110   2.735858   2.643435   0.000000
    20  H    3.873621   2.529055   4.278260   2.817244   0.000000
    21  H    2.787637   3.508672   2.511527   2.546710   4.255709
    22  H    5.092469   5.146908   5.220121   3.029777   3.927109
    23  H    4.726888   4.629142   5.464672   3.305380   2.728999
    24  H    4.433757   5.605964   6.232108   4.773623   4.224038
    25  H    4.175707   5.702557   5.090700   4.400329   5.553433
    26  O    4.896002   6.619097   6.059547   5.345201   6.328529
    27  H    5.096201   6.703966   6.447131   5.393454   6.040648
    28  H    5.753003   7.384757   6.623010   5.901648   7.132020
    29  O    7.574710   9.058552   8.007456   7.299322   8.864418
    30  H    8.025179   9.677020   8.537014   8.056308   9.624965
    31  H    8.121921   9.363510   8.306850   7.376852   9.045107
                   21         22         23         24         25
    21  H    0.000000
    22  H    3.456533   0.000000
    23  H    4.098809   1.772968   0.000000
    24  H    4.274326   2.829927   2.264314   0.000000
    25  H    2.580489   3.110368   4.066823   3.158485   0.000000
    26  O    3.554663   3.673254   4.597146   3.299997   0.990000
    27  H    3.973201   3.285684   4.031086   2.546168   1.537433
    28  H    4.135894   4.131594   5.284538   4.111099   1.688816
    29  O    5.649947   5.483801   6.889329   5.903351   3.519723
    30  H    6.226029   6.378559   7.735914   6.614505   4.147427
    31  H    6.005175   5.436106   6.955219   6.201879   3.996425
                   26         27         28         29         30
    26  O    0.000000
    27  H    0.987877   0.000000
    28  H    0.964418   1.611013   0.000000
    29  O    2.924418   3.408588   1.960000   0.000000
    30  H    3.504464   4.073374   2.577751   0.960000   0.000000
    31  H    3.504464   3.845628   2.577751   0.960000   1.662769
                   31
    31  H    0.000000
 Stoichiometry    C6H17O8(1+)
 Framework group  C1[X(C6H17O8)]
 Deg. of freedom    87
 Full point group                 C1      NOp   1
 Largest Abelian subgroup         C1      NOp   1
 Largest concise Abelian subgroup C1      NOp   1
                         Standard orientation:                         
 ---------------------------------------------------------------------
 Center     Atomic      Atomic             Coordinates (Angstroms)
 Number     Number       Type             X           Y           Z
 ---------------------------------------------------------------------
      1          6           0        1.651646    0.502833   -1.084358
      2          6           0        1.903817    1.283138    0.219566
      3          6           0        1.250892    0.402500    1.304893
      4          6           0        0.073580   -0.165260    0.486530
      5          8           0        0.575982   -0.416531   -0.772851
      6          6           0        2.831238   -0.274002   -1.623398
      7          6           0       -0.602440   -1.414110    1.024355
      8          8           0        3.370754   -1.052175   -0.567294
      9          8           0        1.165505    2.502193    0.098736
     10          8           0       -0.954591    0.900084    0.405054
     11          8           0        2.061403   -0.610879    1.796173
     12          8           0       -1.471433   -1.988440    0.054144
     13          1           0        2.489812   -0.910197   -2.444659
     14          1           0        3.570298    0.437566   -2.005319
     15          1           0        4.127137   -1.563535   -0.867957
     16          1           0        1.302899    1.196825   -1.852812
     17          1           0        2.962250    1.463932    0.412075
     18          1           0        1.482844    3.155171    0.731575
     19          1           0        0.898299    1.000560    2.147099
     20          1           0        2.629985   -0.951265    1.084788
     21          1           0       -0.526343    1.754595    0.175410
     22          1           0       -1.206289   -1.164552    1.897002
     23          1           0        0.174225   -2.117445    1.322905
     24          1           0       -0.941569   -2.423837   -0.623436
     25          1           0       -2.543960    0.295273   -0.501735
     26          8           0       -3.313700   -0.151079   -0.935751
     27          1           0       -3.114474   -1.105571   -0.777147
     28          1           0       -4.210342    0.069177   -0.657142
     29          8           0       -6.032599    0.516807   -0.090920
     30          1           0       -6.635751    0.940860   -0.705727
     31          1           0       -6.321981    0.312002    0.801219
 ---------------------------------------------------------------------
 Rotational constants (GHZ):           1.0352973           0.3059303           0.2885951
 Standard basis: 6-311++G(d,p) (5D, 7F)
 There are   441 symmetry adapted cartesian basis functions of A   symmetry.
 There are   427 symmetry adapted basis functions of A   symmetry.
   427 basis functions,   657 primitive gaussians,   441 cartesian basis functions
    58 alpha electrons       58 beta electrons
       nuclear repulsion energy      1100.1997439698 Hartrees.
 NAtoms=   31 NActive=   31 NUniq=   31 SFac= 1.00D+00 NAtFMM=   60 NAOKFM=F Big=F
 Integral buffers will be    131072 words long.
 Raffenetti 2 integral format.
 Two-electron integral symmetry is turned on.
 ------------------------------------------------------------------------------
 Polarizable Continuum Model (PCM)
 =================================
 Model                : PCM.
 Atomic radii         : SMD-Coulomb.
 Polarization charges : Total charges.
 Charge compensation  : None.
 Solution method      : On-the-fly selection.
 Cavity type          : VdW (van der Waals Surface) (Alpha=1.000).
 Cavity algorithm     : GePol (No added spheres)
                        Default sphere list used, NSphG=   31.
                        Lebedev-Laikov grids with approx.  5.0 points / Ang**2.
                        Smoothing algorithm: York/Karplus (Gamma=1.0000).
                        Polarization charges: spherical gaussians, with
                                              point-specific exponents (IZeta= 3).
                        Self-potential: point-specific (ISelfS= 7).
                        Self-field    : sphere-specific E.n sum rule (ISelfD= 2).
 1st derivatives      : Analytical E(r).r(x)/FMM algorithm (CHGder, D1EAlg=3).
                        Cavity 1st derivative terms included.
 Solvent              : Water, Eps=  78.355300 Eps(inf)=   1.777849
 ------------------------------------------------------------------------------
 ------------------------------------------------------------------------------
 Atomic radii for non-electrostatic terms: SMD-CDS.
 ------------------------------------------------------------------------------
 Nuclear repulsion after PCM non-electrostatic terms =     1100.2104126459 Hartrees.
 One-electron integrals computed using PRISM.
 NBasis=   427 RedAO= T EigKep=  2.22D-06  NBF=   427
 NBsUse=   427 1.00D-06 EigRej= -1.00D+00 NBFU=   427
 ExpMin= 3.60D-02 ExpMax= 8.59D+03 ExpMxC= 1.30D+03 IAcc=3 IRadAn=         5 AccDes= 0.00D+00
 Harris functional with IExCor= 1009 and IRadAn=       5 diagonalized for initial guess.
 HarFok:  IExCor= 1009 AccDes= 0.00D+00 IRadAn=         5 IDoV= 1 UseB2=F ITyADJ=14
 ICtDFT=  3500011 ScaDFX=  1.000000  1.000000  1.000000  1.000000
 FoFCou: FMM=F IPFlag=           0 FMFlag=      100000 FMFlg1=           0
         NFxFlg=           0 DoJE=T BraDBF=F KetDBF=T FulRan=T
         wScrn=  0.000000 ICntrl=       500 IOpCl=  0 I1Cent=   200000004 NGrid=           0
         NMat0=    1 NMatS0=      1 NMatT0=    0 NMatD0=    1 NMtDS0=    0 NMtDT0=    0
 Petite list used in FoFCou.
 Requested convergence on RMS density matrix=1.00D-08 within 400 cycles.
 Requested convergence on MAX density matrix=1.00D-06.
 Requested convergence on             energy=1.00D-06.
 No special actions if energy rises.
 Inv3:  Mode=1 IEnd=    11093787.
 Iteration    1 A*A^-1 deviation from unit magnitude is 4.11D-15 for   1921.
 Iteration    1 A*A^-1 deviation from orthogonality  is 3.97D-15 for   1889   1619.
 Iteration    1 A^-1*A deviation from unit magnitude is 4.11D-15 for   1921.
 Iteration    1 A^-1*A deviation from orthogonality  is 3.79D-15 for   1746   1724.
 Error on total polarization charges =  0.05731
 SCF Done:  E(RM062X) =  -840.472467521     A.U. after   12 cycles
            NFock= 12  Conv=0.94D-08     -V/T= 2.0036
 SMD-CDS (non-electrostatic) energy       (kcal/mol) =       6.69
 (included in total energy above)
 QCSCF skips out because SCF is already converged.

 **********************************************************************

            Population analysis using the SCF density.

 **********************************************************************

 Orbital symmetries:
       Occupied  (A) (A) (A) (A) (A) (A) (A) (A) (A) (A) (A) (A)
                 (A) (A) (A) (A) (A) (A) (A) (A) (A) (A) (A) (A)
                 (A) (A) (A) (A) (A) (A) (A) (A) (A) (A) (A) (A)
                 (A) (A) (A) (A) (A) (A) (A) (A) (A) (A) (A) (A)
                 (A) (A) (A) (A) (A) (A) (A) (A) (A) (A)
       Virtual   (A) (A) (A) (A) (A) (A) (A) (A) (A) (A) (A) (A)
                 (A) (A) (A) (A) (A) (A) (A) (A) (A) (A) (A) (A)
                 (A) (A) (A) (A) (A) (A) (A) (A) (A) (A) (A) (A)
                 (A) (A) (A) (A) (A) (A) (A) (A) (A) (A) (A) (A)
                 (A) (A) (A) (A) (A) (A) (A) (A) (A) (A) (A) (A)
                 (A) (A) (A) (A) (A) (A) (A) (A) (A) (A) (A) (A)
                 (A) (A) (A) (A) (A) (A) (A) (A) (A) (A) (A) (A)
                 (A) (A) (A) (A) (A) (A) (A) (A) (A) (A) (A) (A)
                 (A) (A) (A) (A) (A) (A) (A) (A) (A) (A) (A) (A)
                 (A) (A) (A) (A) (A) (A) (A) (A) (A) (A) (A) (A)
                 (A) (A) (A) (A) (A) (A) (A) (A) (A) (A) (A) (A)
                 (A) (A) (A) (A) (A) (A) (A) (A) (A) (A) (A) (A)
                 (A) (A) (A) (A) (A) (A) (A) (A) (A) (A) (A) (A)
                 (A) (A) (A) (A) (A) (A) (A) (A) (A) (A) (A) (A)
                 (A) (A) (A) (A) (A) (A) (A) (A) (A) (A) (A) (A)
                 (A) (A) (A) (A) (A) (A) (A) (A) (A) (A) (A) (A)
                 (A) (A) (A) (A) (A) (A) (A) (A) (A) (A) (A) (A)
                 (A) (A) (A) (A) (A) (A) (A) (A) (A) (A) (A) (A)
                 (A) (A) (A) (A) (A) (A) (A) (A) (A) (A) (A) (A)
                 (A) (A) (A) (A) (A) (A) (A) (A) (A) (A) (A) (A)
                 (A) (A) (A) (A) (A) (A) (A) (A) (A) (A) (A) (A)
                 (A) (A) (A) (A) (A) (A) (A) (A) (A) (A) (A) (A)
                 (A) (A) (A) (A) (A) (A) (A) (A) (A) (A) (A) (A)
                 (A) (A) (A) (A) (A) (A) (A) (A) (A) (A) (A) (A)
                 (A) (A) (A) (A) (A) (A) (A) (A) (A) (A) (A) (A)
                 (A) (A) (A) (A) (A) (A) (A) (A) (A) (A) (A) (A)
                 (A) (A) (A) (A) (A) (A) (A) (A) (A) (A) (A) (A)
                 (A) (A) (A) (A) (A) (A) (A) (A) (A) (A) (A) (A)
                 (A) (A) (A) (A) (A) (A) (A) (A) (A) (A) (A) (A)
                 (A) (A) (A) (A) (A) (A) (A) (A) (A) (A) (A) (A)
                 (A) (A) (A) (A) (A) (A) (A) (A) (A)
 The electronic state is 1-A.
 Alpha  occ. eigenvalues --  -19.73655 -19.65126 -19.64422 -19.64116 -19.64002
 Alpha  occ. eigenvalues --  -19.63412 -19.62968 -19.62886 -10.65346 -10.60686
 Alpha  occ. eigenvalues --  -10.60285 -10.59992 -10.59191 -10.59111  -1.26305
 Alpha  occ. eigenvalues --   -1.22552  -1.16913  -1.16589  -1.15820  -1.15616
 Alpha  occ. eigenvalues --   -1.13589  -1.12537  -0.89314  -0.86937  -0.81308
 Alpha  occ. eigenvalues --   -0.75078  -0.72717  -0.70620  -0.68540  -0.66988
 Alpha  occ. eigenvalues --   -0.64485  -0.64070  -0.63421  -0.61724  -0.59976
 Alpha  occ. eigenvalues --   -0.59525  -0.55534  -0.54976  -0.53373  -0.52774
 Alpha  occ. eigenvalues --   -0.51792  -0.50653  -0.49763  -0.49173  -0.48077
 Alpha  occ. eigenvalues --   -0.46906  -0.46680  -0.44546  -0.43138  -0.42659
 Alpha  occ. eigenvalues --   -0.41491  -0.41303  -0.40283  -0.38825  -0.37592
 Alpha  occ. eigenvalues --   -0.36950  -0.35843  -0.33159
 Alpha virt. eigenvalues --   -0.00652   0.00420   0.01024   0.01427   0.01899
 Alpha virt. eigenvalues --    0.02819   0.03109   0.03669   0.03834   0.04165
 Alpha virt. eigenvalues --    0.04907   0.05656   0.06347   0.06963   0.07911
 Alpha virt. eigenvalues --    0.08276   0.08810   0.09085   0.09514   0.10020
 Alpha virt. eigenvalues --    0.10770   0.11360   0.12079   0.12205   0.12944
 Alpha virt. eigenvalues --    0.13071   0.13593   0.13882   0.14034   0.14538
 Alpha virt. eigenvalues --    0.15040   0.15153   0.15648   0.16129   0.16389
 Alpha virt. eigenvalues --    0.16762   0.16978   0.17777   0.18152   0.18914
 Alpha virt. eigenvalues --    0.19438   0.19864   0.19988   0.20906   0.21189
 Alpha virt. eigenvalues --    0.21476   0.21885   0.22350   0.22539   0.22837
 Alpha virt. eigenvalues --    0.23838   0.24146   0.24800   0.25090   0.25362
 Alpha virt. eigenvalues --    0.25584   0.26240   0.26403   0.26999   0.27437
 Alpha virt. eigenvalues --    0.27864   0.28148   0.28341   0.29055   0.29629
 Alpha virt. eigenvalues --    0.30170   0.30324   0.30942   0.31308   0.31854
 Alpha virt. eigenvalues --    0.32565   0.33272   0.33549   0.33877   0.34140
 Alpha virt. eigenvalues --    0.34740   0.35036   0.35369   0.35508   0.36121
 Alpha virt. eigenvalues --    0.36708   0.36856   0.37258   0.37977   0.38326
 Alpha virt. eigenvalues --    0.38579   0.39805   0.40137   0.40311   0.41016
 Alpha virt. eigenvalues --    0.41123   0.41693   0.42498   0.44405   0.45304
 Alpha virt. eigenvalues --    0.46635   0.47348   0.49353   0.49583   0.50022
 Alpha virt. eigenvalues --    0.51745   0.53140   0.55730   0.56714   0.57229
 Alpha virt. eigenvalues --    0.57595   0.59204   0.59919   0.61287   0.61767
 Alpha virt. eigenvalues --    0.62436   0.63024   0.63904   0.64847   0.65376
 Alpha virt. eigenvalues --    0.66436   0.66978   0.67677   0.69370   0.69904
 Alpha virt. eigenvalues --    0.71352   0.72030   0.73255   0.74032   0.74615
 Alpha virt. eigenvalues --    0.74846   0.76645   0.76885   0.78615   0.79408
 Alpha virt. eigenvalues --    0.80907   0.81881   0.82617   0.84734   0.85238
 Alpha virt. eigenvalues --    0.87327   0.87483   0.96480   0.97729   0.99577
 Alpha virt. eigenvalues --    1.03376   1.03880   1.05276   1.06300   1.07459
 Alpha virt. eigenvalues --    1.08727   1.09114   1.10439   1.11128   1.11817
 Alpha virt. eigenvalues --    1.13458   1.15900   1.17866   1.18785   1.19614
 Alpha virt. eigenvalues --    1.21283   1.21632   1.22267   1.23504   1.24375
 Alpha virt. eigenvalues --    1.25520   1.26039   1.28036   1.28144   1.28366
 Alpha virt. eigenvalues --    1.30413   1.31778   1.31952   1.32870   1.34173
 Alpha virt. eigenvalues --    1.35246   1.37787   1.38436   1.39431   1.41074
 Alpha virt. eigenvalues --    1.42229   1.44463   1.44679   1.47435   1.49165
 Alpha virt. eigenvalues --    1.50564   1.50709   1.53409   1.54559   1.55593
 Alpha virt. eigenvalues --    1.56060   1.57328   1.58115   1.58950   1.59950
 Alpha virt. eigenvalues --    1.61313   1.63226   1.63824   1.64197   1.65631
 Alpha virt. eigenvalues --    1.66035   1.66207   1.67006   1.67087   1.68936
 Alpha virt. eigenvalues --    1.70760   1.71161   1.72175   1.73868   1.75241
 Alpha virt. eigenvalues --    1.77402   1.78149   1.78565   1.81135   1.81673
 Alpha virt. eigenvalues --    1.83199   1.83962   1.87044   1.87484   1.88686
 Alpha virt. eigenvalues --    1.88896   1.89667   1.92366   1.93628   1.94728
 Alpha virt. eigenvalues --    1.99456   1.99962   2.00979   2.01056   2.03621
 Alpha virt. eigenvalues --    2.06603   2.08080   2.09662   2.10248   2.12673
 Alpha virt. eigenvalues --    2.13894   2.14957   2.16258   2.17309   2.17734
 Alpha virt. eigenvalues --    2.19356   2.20727   2.23771   2.24021   2.25976
 Alpha virt. eigenvalues --    2.27062   2.28237   2.31237   2.34181   2.34516
 Alpha virt. eigenvalues --    2.36367   2.38828   2.41772   2.46957   2.54250
 Alpha virt. eigenvalues --    2.55077   2.55621   2.56672   2.58599   2.60334
 Alpha virt. eigenvalues --    2.60756   2.61676   2.64010   2.64535   2.67769
 Alpha virt. eigenvalues --    2.68537   2.69261   2.70399   2.75205   2.76039
 Alpha virt. eigenvalues --    2.77323   2.80984   2.82672   2.83885   2.87382
 Alpha virt. eigenvalues --    2.89680   2.92037   2.94892   2.96031   2.97069
 Alpha virt. eigenvalues --    2.99504   3.01063   3.04534   3.06576   3.07456
 Alpha virt. eigenvalues --    3.07558   3.09850   3.13690   3.15624   3.16987
 Alpha virt. eigenvalues --    3.18934   3.19709   3.20669   3.22557   3.24988
 Alpha virt. eigenvalues --    3.25408   3.26069   3.27467   3.28688   3.29151
 Alpha virt. eigenvalues --    3.29617   3.30849   3.32660   3.33908   3.36175
 Alpha virt. eigenvalues --    3.36766   3.38838   3.40878   3.41276   3.42982
 Alpha virt. eigenvalues --    3.48432   3.54980   3.62321   3.63955   3.79210
 Alpha virt. eigenvalues --    3.85419   3.85709   3.86821   3.87068   3.87737
 Alpha virt. eigenvalues --    3.91750   3.93756   3.93914   3.95836   3.97569
 Alpha virt. eigenvalues --    4.00915   4.03333   4.07376   4.07682   4.10481
 Alpha virt. eigenvalues --    4.16050   4.22294   4.26134   4.27874   4.34965
 Alpha virt. eigenvalues --    4.43709   5.07145   5.16560   5.18041   5.23471
 Alpha virt. eigenvalues --    5.25012   5.26435   5.26683   5.32212   5.42984
 Alpha virt. eigenvalues --    5.47649   5.51542   5.53875   5.56546   5.57870
 Alpha virt. eigenvalues --    5.59777   5.63963   5.71089   5.74936   5.78735
 Alpha virt. eigenvalues --    5.80226   5.81811   5.82336   5.86058   5.93395
 Alpha virt. eigenvalues --   23.79709  23.88164  23.92237  23.94289  23.96655
 Alpha virt. eigenvalues --   24.00276  49.93287  50.00027  50.02037  50.03140
 Alpha virt. eigenvalues --   50.05782  50.09824  50.11571  50.13501
          Condensed to atoms (all electrons):
               1          2          3          4          5          6
     1  C    9.973955  -3.043411   1.939497  -2.858774   0.254212  -1.029383
     2  C   -3.043411  10.259347  -3.160143   2.390645  -0.152593   0.327194
     3  C    1.939497  -3.160143  11.743473  -4.206674   0.170621   0.132837
     4  C   -2.858774   2.390645  -4.206674  13.334186   0.033476   0.150703
     5  O    0.254212  -0.152593   0.170621   0.033476   8.217981  -0.072158
     6  C   -1.029383   0.327194   0.132837   0.150703  -0.072158   6.179697
     7  C    0.273247  -0.508816  -0.875889  -1.929958  -0.341686  -0.094179
     8  O   -0.023436  -0.092178   0.115445  -0.107692   0.027080   0.133379
     9  O   -0.175866   0.378753  -0.135809  -0.132732   0.010523   0.006710
    10  O    0.041506  -0.001474  -0.018869   0.100363  -0.046918   0.001981
    11  O    0.054472  -0.196128   0.476003  -0.268458   0.003151  -0.020174
    12  O    0.010173  -0.029162   0.062235  -0.280070  -0.007002  -0.006872
    13  H   -0.025407  -0.028612   0.021359  -0.028958  -0.021705   0.435735
    14  H   -0.071177   0.017131  -0.008482  -0.009691   0.020064   0.462655
    15  H   -0.024724  -0.001892   0.008629   0.003992   0.002328   0.036805
    16  H    0.463933  -0.123679   0.055172  -0.034053  -0.033105  -0.063320
    17  H    0.068176   0.278482   0.058598  -0.112957  -0.003175  -0.022477
    18  H   -0.082757   0.128266  -0.099363   0.091406  -0.000895  -0.001939
    19  H    0.007334  -0.043728   0.434307  -0.028312   0.020770   0.015833
    20  H    0.000412   0.052353  -0.049867   0.048720   0.005233  -0.012504
    21  H    0.011563  -0.038484   0.003433   0.033547  -0.010019  -0.011790
    22  H   -0.011876  -0.000120  -0.008752  -0.073679   0.014065   0.003702
    23  H    0.028420  -0.017217  -0.036224  -0.079352  -0.018677  -0.013785
    24  H    0.002586  -0.001154  -0.000032  -0.008534   0.015483  -0.000293
    25  H   -0.037325   0.034322  -0.041946   0.053598  -0.002013   0.005715
    26  O    0.005876  -0.013860  -0.008073  -0.027930  -0.006731  -0.001539
    27  H   -0.001948   0.000897   0.000588  -0.004164  -0.001403   0.000411
    28  H    0.000624  -0.000397   0.005775   0.008309   0.000669  -0.000057
    29  O    0.000108  -0.000112   0.000457   0.004256  -0.000003  -0.000007
    30  H   -0.000015  -0.000004  -0.000070  -0.000515   0.000003   0.000002
    31  H   -0.000002   0.000021  -0.000149  -0.000260  -0.000000  -0.000004
               7          8          9         10         11         12
     1  C    0.273247  -0.023436  -0.175866   0.041506   0.054472   0.010173
     2  C   -0.508816  -0.092178   0.378753  -0.001474  -0.196128  -0.029162
     3  C   -0.875889   0.115445  -0.135809  -0.018869   0.476003   0.062235
     4  C   -1.929958  -0.107692  -0.132732   0.100363  -0.268458  -0.280070
     5  O   -0.341686   0.027080   0.010523  -0.046918   0.003151  -0.007002
     6  C   -0.094179   0.133379   0.006710   0.001981  -0.020174  -0.006872
     7  C    9.132792   0.000649   0.047704  -0.241921  -0.002734   0.265962
     8  O    0.000649   8.280824   0.002618   0.001709  -0.016146  -0.000643
     9  O    0.047704   0.002618   8.073042  -0.002418   0.022431   0.000396
    10  O   -0.241921   0.001709  -0.002418   8.138296   0.020683   0.028468
    11  O   -0.002734  -0.016146   0.022431   0.020683   7.927350   0.000504
    12  O    0.265962  -0.000643   0.000396   0.028468   0.000504   8.136532
    13  H   -0.001746  -0.058869  -0.001929   0.001514   0.001408   0.000517
    14  H    0.000274  -0.067081  -0.000905  -0.001225   0.000130  -0.000195
    15  H   -0.002634   0.230022  -0.000090   0.000020  -0.000572   0.000038
    16  H    0.002532   0.009672  -0.003841   0.003088  -0.001454  -0.000018
    17  H   -0.006660   0.008358  -0.002398   0.001966  -0.003325   0.000512
    18  H    0.010980   0.000405   0.272607  -0.005572   0.001791  -0.000199
    19  H   -0.123545   0.001769  -0.019986   0.018484  -0.054388  -0.001608
    20  H   -0.031208  -0.023158   0.000252  -0.001638   0.294247  -0.001451
    21  H    0.037083   0.000238  -0.002457   0.273682  -0.001120   0.002573
    22  H    0.472647   0.000511   0.000556  -0.006876  -0.009805  -0.069190
    23  H    0.427662  -0.001344  -0.000116   0.010314   0.042153  -0.008374
    24  H    0.000097   0.000009  -0.000179  -0.003992  -0.002243   0.264332
    25  H   -0.034222   0.000120  -0.002729   0.056984  -0.000915   0.001554
    26  O    0.054687  -0.000020   0.000538  -0.004013   0.000053  -0.020105
    27  H    0.010103   0.000002   0.000018  -0.000441  -0.000001   0.019674
    28  H   -0.004184  -0.000011  -0.000059  -0.006774   0.000016  -0.001093
    29  O   -0.003068   0.000000   0.000002  -0.000593   0.000000  -0.000341
    30  H    0.000372   0.000000   0.000000   0.000071  -0.000000   0.000033
    31  H    0.000214  -0.000000   0.000000   0.000054   0.000001   0.000030
              13         14         15         16         17         18
     1  C   -0.025407  -0.071177  -0.024724   0.463933   0.068176  -0.082757
     2  C   -0.028612   0.017131  -0.001892  -0.123679   0.278482   0.128266
     3  C    0.021359  -0.008482   0.008629   0.055172   0.058598  -0.099363
     4  C   -0.028958  -0.009691   0.003992  -0.034053  -0.112957   0.091406
     5  O   -0.021705   0.020064   0.002328  -0.033105  -0.003175  -0.000895
     6  C    0.435735   0.462655   0.036805  -0.063320  -0.022477  -0.001939
     7  C   -0.001746   0.000274  -0.002634   0.002532  -0.006660   0.010980
     8  O   -0.058869  -0.067081   0.230022   0.009672   0.008358   0.000405
     9  O   -0.001929  -0.000905  -0.000090  -0.003841  -0.002398   0.272607
    10  O    0.001514  -0.001225   0.000020   0.003088   0.001966  -0.005572
    11  O    0.001408   0.000130  -0.000572  -0.001454  -0.003325   0.001791
    12  O    0.000517  -0.000195   0.000038  -0.000018   0.000512  -0.000199
    13  H    0.540395  -0.055120  -0.000720   0.000928   0.006007  -0.000893
    14  H   -0.055120   0.523321  -0.005004  -0.010590  -0.012262   0.000864
    15  H   -0.000720  -0.005004   0.368426  -0.000094  -0.001816  -0.000168
    16  H    0.000928  -0.010590  -0.000094   0.409140   0.009202  -0.001194
    17  H    0.006007  -0.012262  -0.001816   0.009202   0.427065  -0.021950
    18  H   -0.000893   0.000864  -0.000168  -0.001194  -0.021950   0.372574
    19  H    0.001186  -0.000901   0.000497   0.002323  -0.001971  -0.005077
    20  H   -0.004053   0.002054   0.005401   0.000004  -0.009294   0.001883
    21  H   -0.000448   0.000120   0.000021   0.006230   0.003443  -0.005829
    22  H    0.000181   0.000053   0.000061  -0.000740  -0.000803   0.000478
    23  H    0.000368  -0.000702  -0.000867   0.000494   0.002472  -0.000520
    24  H   -0.000746   0.000132   0.000139   0.000129  -0.000148   0.000051
    25  H   -0.000159   0.000424   0.000007  -0.001673  -0.000025  -0.000075
    26  O    0.000262  -0.000094  -0.000003   0.000498  -0.000127  -0.000000
    27  H   -0.000045   0.000037  -0.000001   0.000039   0.000023  -0.000023
    28  H    0.000039  -0.000048   0.000004  -0.000266  -0.000020   0.000100
    29  O    0.000000  -0.000000   0.000000   0.000019  -0.000001  -0.000003
    30  H   -0.000000   0.000000  -0.000000   0.000000  -0.000000  -0.000000
    31  H   -0.000000   0.000000  -0.000000   0.000003   0.000000  -0.000001
              19         20         21         22         23         24
     1  C    0.007334   0.000412   0.011563  -0.011876   0.028420   0.002586
     2  C   -0.043728   0.052353  -0.038484  -0.000120  -0.017217  -0.001154
     3  C    0.434307  -0.049867   0.003433  -0.008752  -0.036224  -0.000032
     4  C   -0.028312   0.048720   0.033547  -0.073679  -0.079352  -0.008534
     5  O    0.020770   0.005233  -0.010019   0.014065  -0.018677   0.015483
     6  C    0.015833  -0.012504  -0.011790   0.003702  -0.013785  -0.000293
     7  C   -0.123545  -0.031208   0.037083   0.472647   0.427662   0.000097
     8  O    0.001769  -0.023158   0.000238   0.000511  -0.001344   0.000009
     9  O   -0.019986   0.000252  -0.002457   0.000556  -0.000116  -0.000179
    10  O    0.018484  -0.001638   0.273682  -0.006876   0.010314  -0.003992
    11  O   -0.054388   0.294247  -0.001120  -0.009805   0.042153  -0.002243
    12  O   -0.001608  -0.001451   0.002573  -0.069190  -0.008374   0.264332
    13  H    0.001186  -0.004053  -0.000448   0.000181   0.000368  -0.000746
    14  H   -0.000901   0.002054   0.000120   0.000053  -0.000702   0.000132
    15  H    0.000497   0.005401   0.000021   0.000061  -0.000867   0.000139
    16  H    0.002323   0.000004   0.006230  -0.000740   0.000494   0.000129
    17  H   -0.001971  -0.009294   0.003443  -0.000803   0.002472  -0.000148
    18  H   -0.005077   0.001883  -0.005829   0.000478  -0.000520   0.000051
    19  H    0.447392   0.010709   0.000923   0.002003  -0.002636   0.000235
    20  H    0.010709   0.359694  -0.001072   0.000214  -0.006622   0.000417
    21  H    0.000923  -0.001072   0.347667  -0.001885   0.001988  -0.000322
    22  H    0.002003   0.000214  -0.001885   0.430689  -0.017838   0.012119
    23  H   -0.002636  -0.006622   0.001988  -0.017838   0.465177  -0.019200
    24  H    0.000235   0.000417  -0.000322   0.012119  -0.019200   0.398908
    25  H    0.003204   0.000084  -0.009899   0.001873  -0.000505  -0.001068
    26  O    0.000133   0.000070  -0.000902   0.002066  -0.000641  -0.000921
    27  H   -0.000185  -0.000068   0.000728  -0.000619   0.000117  -0.004489
    28  H   -0.000474   0.000000  -0.000871  -0.000525  -0.000102   0.000638
    29  O   -0.000002   0.000001   0.000455   0.000116  -0.000043   0.000043
    30  H    0.000003  -0.000000  -0.000028   0.000050  -0.000007   0.000002
    31  H    0.000007   0.000001  -0.000048  -0.000207   0.000025   0.000015
              25         26         27         28         29         30
     1  C   -0.037325   0.005876  -0.001948   0.000624   0.000108  -0.000015
     2  C    0.034322  -0.013860   0.000897  -0.000397  -0.000112  -0.000004
     3  C   -0.041946  -0.008073   0.000588   0.005775   0.000457  -0.000070
     4  C    0.053598  -0.027930  -0.004164   0.008309   0.004256  -0.000515
     5  O   -0.002013  -0.006731  -0.001403   0.000669  -0.000003   0.000003
     6  C    0.005715  -0.001539   0.000411  -0.000057  -0.000007   0.000002
     7  C   -0.034222   0.054687   0.010103  -0.004184  -0.003068   0.000372
     8  O    0.000120  -0.000020   0.000002  -0.000011   0.000000   0.000000
     9  O   -0.002729   0.000538   0.000018  -0.000059   0.000002   0.000000
    10  O    0.056984  -0.004013  -0.000441  -0.006774  -0.000593   0.000071
    11  O   -0.000915   0.000053  -0.000001   0.000016   0.000000  -0.000000
    12  O    0.001554  -0.020105   0.019674  -0.001093  -0.000341   0.000033
    13  H   -0.000159   0.000262  -0.000045   0.000039   0.000000  -0.000000
    14  H    0.000424  -0.000094   0.000037  -0.000048  -0.000000   0.000000
    15  H    0.000007  -0.000003  -0.000001   0.000004   0.000000  -0.000000
    16  H   -0.001673   0.000498   0.000039  -0.000266   0.000019   0.000000
    17  H   -0.000025  -0.000127   0.000023  -0.000020  -0.000001  -0.000000
    18  H   -0.000075  -0.000000  -0.000023   0.000100  -0.000003  -0.000000
    19  H    0.003204   0.000133  -0.000185  -0.000474  -0.000002   0.000003
    20  H    0.000084   0.000070  -0.000068   0.000000   0.000001  -0.000000
    21  H   -0.009899  -0.000902   0.000728  -0.000871   0.000455  -0.000028
    22  H    0.001873   0.002066  -0.000619  -0.000525   0.000116   0.000050
    23  H   -0.000505  -0.000641   0.000117  -0.000102  -0.000043  -0.000007
    24  H   -0.001068  -0.000921  -0.004489   0.000638   0.000043   0.000002
    25  H    0.274829   0.256622  -0.003376  -0.012258  -0.012888   0.000459
    26  O    0.256622   7.562866   0.301132   0.266837   0.035512  -0.002750
    27  H   -0.003376   0.301132   0.290583  -0.014692  -0.005589   0.000472
    28  H   -0.012258   0.266837  -0.014692   0.258581  -0.012210   0.003401
    29  O   -0.012888   0.035512  -0.005589  -0.012210   8.072813   0.314914
    30  H    0.000459  -0.002750   0.000472   0.003401   0.314914   0.332330
    31  H    0.001226  -0.002379  -0.000181   0.003469   0.319602  -0.012903
              31
     1  C   -0.000002
     2  C    0.000021
     3  C   -0.000149
     4  C   -0.000260
     5  O   -0.000000
     6  C   -0.000004
     7  C    0.000214
     8  O   -0.000000
     9  O    0.000000
    10  O    0.000054
    11  O    0.000001
    12  O    0.000030
    13  H   -0.000000
    14  H    0.000000
    15  H   -0.000000
    16  H    0.000003
    17  H    0.000000
    18  H   -0.000001
    19  H    0.000007
    20  H    0.000001
    21  H   -0.000048
    22  H   -0.000207
    23  H    0.000025
    24  H    0.000015
    25  H    0.001226
    26  O   -0.002379
    27  H   -0.000181
    28  H    0.003469
    29  O    0.319602
    30  H   -0.012903
    31  H    0.328109
 Mulliken charges:
               1
     1  C    0.250006
     2  C   -0.414248
     3  C   -0.578088
     4  C   -0.060439
     5  O   -0.077575
     6  C   -0.542880
     7  C   -0.534556
     8  O   -0.422229
     9  O   -0.334637
    10  O   -0.356461
    11  O   -0.266929
    12  O   -0.367211
    13  H    0.219511
    14  H    0.216215
    15  H    0.382195
    16  H    0.310621
    17  H    0.335106
    18  H    0.345055
    19  H    0.315705
    20  H    0.359189
    21  H    0.361479
    22  H    0.261531
    23  H    0.245580
    24  H    0.347987
    25  H    0.470058
    26  O   -0.397063
    27  H    0.412404
    28  H    0.505577
    29  O   -0.713436
    30  H    0.364177
    31  H    0.363357
 Sum of Mulliken charges =   1.00000
 Mulliken charges with hydrogens summed into heavy atoms:
               1
     1  C    0.560627
     2  C   -0.079141
     3  C   -0.262384
     4  C   -0.060439
     5  O   -0.077575
     6  C   -0.107154
     7  C   -0.027445
     8  O   -0.040034
     9  O    0.010417
    10  O    0.005018
    11  O    0.092260
    12  O   -0.019224
    26  O    0.990975
    29  O    0.014099
 Electronic spatial extent (au):  <R**2>=           4004.0461
 Charge=              1.0000 electrons
 Dipole moment (field-independent basis, Debye):
    X=             -7.8474    Y=              1.3544    Z=             -3.6123  Tot=              8.7444
 Quadrupole moment (field-independent basis, Debye-Ang):
   XX=             11.7217   YY=            -68.8232   ZZ=            -78.2521
   XY=             -1.1250   XZ=             -7.8003   YZ=              8.3612
 Traceless Quadrupole moment (field-independent basis, Debye-Ang):
   XX=             56.8396   YY=            -23.7053   ZZ=            -33.1343
   XY=             -1.1250   XZ=             -7.8003   YZ=              8.3612
 Octapole moment (field-independent basis, Debye-Ang**2):
  XXX=           -386.5013  YYY=             12.9167  ZZZ=            -22.0948  XYY=             11.8011
  XXY=             25.9633  XXZ=            -52.2975  XZZ=            -23.8433  YZZ=              4.5884
  YYZ=              1.7979  XYZ=             21.5901
 Hexadecapole moment (field-independent basis, Debye-Ang**3):
 XXXX=            -68.3806 YYYY=           -623.4168 ZZZZ=           -574.0878 XXXY=           -420.7770
 XXXZ=           -103.7261 YYYX=              4.3388 YYYZ=             83.2060 ZZZX=            -56.5942
 ZZZY=             26.7812 XXYY=           -556.6645 XXZZ=           -515.6922 YYZZ=           -193.7312
 XXYZ=             13.7143 YYXZ=             42.9195 ZZXY=              2.7668
 N-N= 1.100210412646D+03 E-N=-4.161336877118D+03  KE= 8.374662673349D+02
 D1PCM: PCM CHGder 1st derivatives, ID1Alg=3 FixD1E=F DoIter=F DoCFld=F I1PDM=0.
 Calling FoFJK, ICntrl=      2127 FMM=F ISym2X=0 I1Cent= 0 IOpClX= 0 NMat=1 NMatS=1 NMatT=0.
 ***** Axes restored to original set *****
 -------------------------------------------------------------------
 Center     Atomic                   Forces (Hartrees/Bohr)
 Number     Number              X              Y              Z
 -------------------------------------------------------------------
      1        6          -0.000729632    0.000105516    0.000158098
      2        6          -0.001365768    0.001031089    0.000058849
      3        6          -0.011186348    0.008918474   -0.008749147
      4        6          -0.021870443    0.032537656    0.009170665
      5        8           0.009504517   -0.006777067   -0.011320546
      6        6          -0.001384708    0.003744586   -0.000902201
      7        6           0.001572709    0.001527279   -0.002226353
      8        8          -0.000706382   -0.002065082    0.003723255
      9        8           0.006416445    0.001688895   -0.003102174
     10        8          -0.000194118   -0.017830782   -0.003962000
     11        8           0.013049408   -0.011381451    0.010353967
     12        8          -0.004326856    0.000525141    0.000869193
     13        1           0.000519097   -0.000412100    0.000219624
     14        1          -0.000231620   -0.000608108    0.000519462
     15        1           0.001388040   -0.000614060   -0.002213911
     16        1           0.000481881   -0.000653594    0.000108405
     17        1          -0.000087981    0.000984272   -0.000512220
     18        1           0.000567254   -0.001400381    0.003328861
     19        1           0.000106049   -0.000266942   -0.001652145
     20        1          -0.000233253   -0.000266274   -0.002057773
     21        1          -0.003459956   -0.010692834    0.003052282
     22        1           0.000668064    0.001226278   -0.000699971
     23        1          -0.000847669   -0.002146463   -0.001005828
     24        1           0.001174114    0.000793394   -0.000021125
     25        1          -0.001312668    0.014074561    0.006525034
     26        8           0.026417526   -0.026774808   -0.008960335
     27        1          -0.002255968    0.003528211   -0.001177662
     28        1          -0.019855315    0.014531093    0.012585186
     29        8           0.033945830   -0.013498828   -0.008216711
     30        1          -0.012115565    0.001390645    0.012461047
     31        1          -0.013646682    0.008781685   -0.006353828
 -------------------------------------------------------------------
 Cartesian Forces:  Max     0.033945830 RMS     0.009120854

 GradGradGradGradGradGradGradGradGradGradGradGradGradGradGradGradGradGrad
 Berny optimization.
 FormGI is forming the generalized inverse of G from B-inverse, IUseBI=4.
 Internal  Forces:  Max     0.021367739 RMS     0.004286013
 Search for a local minimum.
 Step number   1 out of a maximum of  183
 All quantities printed in internal units (Hartrees-Bohrs-Radians)
 Mixed Optimization -- RFO/linear search
 Second derivative matrix not updated -- first step.
 ITU=  0
     Eigenvalues ---    0.00230   0.00230   0.00230   0.00230   0.00385
     Eigenvalues ---    0.00435   0.00610   0.00747   0.00930   0.00970
     Eigenvalues ---    0.01167   0.01291   0.01448   0.01748   0.01857
     Eigenvalues ---    0.02435   0.02895   0.03122   0.03769   0.03936
     Eigenvalues ---    0.04220   0.04410   0.04528   0.04605   0.05087
     Eigenvalues ---    0.05287   0.05487   0.05505   0.05599   0.05723
     Eigenvalues ---    0.05975   0.06223   0.06270   0.06646   0.07330
     Eigenvalues ---    0.07847   0.08405   0.09372   0.09513   0.10369
     Eigenvalues ---    0.11007   0.11218   0.11965   0.12566   0.13631
     Eigenvalues ---    0.14059   0.14312   0.15775   0.16000   0.16000
     Eigenvalues ---    0.16000   0.16000   0.16000   0.16510   0.17776
     Eigenvalues ---    0.18305   0.18834   0.22046   0.25217   0.27180
     Eigenvalues ---    0.27950   0.29870   0.31172   0.33443   0.34273
     Eigenvalues ---    0.34409   0.34514   0.34643   0.34711   0.34795
     Eigenvalues ---    0.34870   0.36487   0.40198   0.40944   0.42695
     Eigenvalues ---    0.46185   0.47752   0.48094   0.48833   0.50803
     Eigenvalues ---    0.52925   0.54534   0.54606   0.54811   0.55205
     Eigenvalues ---    0.55473   0.55473
 RFO step:  Lambda=-1.71277773D-02 EMin= 2.30000000D-03
 Linear search not attempted -- first point.
 Maximum step size (   0.300) exceeded in Quadratic search.
    -- Step size scaled by   0.914
 Iteration  1 RMS(Cart)=  0.05335514 RMS(Int)=  0.00128191
 Iteration  2 RMS(Cart)=  0.00197187 RMS(Int)=  0.00015104
 Iteration  3 RMS(Cart)=  0.00000336 RMS(Int)=  0.00015102
 Iteration  4 RMS(Cart)=  0.00000000 RMS(Int)=  0.00015102
 Variable       Old X    -DE/DX   Delta X   Delta X   Delta X     New X
                                 (Linear)    (Quad)   (Total)
    R1        2.91084   0.00128   0.00000  -0.00100  -0.00113   2.90971
    R2        2.73803   0.00112   0.00000   0.00297   0.00291   2.74094
    R3        2.85685  -0.00070   0.00000  -0.00195  -0.00195   2.85490
    R4        2.06471  -0.00059   0.00000  -0.00150  -0.00150   2.06322
    R5        2.91519   0.00245   0.00000   0.00394   0.00394   2.91912
    R6        2.70290  -0.00250   0.00000  -0.00536  -0.00536   2.69755
    R7        2.06147  -0.00017   0.00000  -0.00042  -0.00042   2.06105
    R8        2.91418   0.00248   0.00000   0.01110   0.01121   2.92539
    R9        2.62204   0.01845   0.00000   0.03411   0.03411   2.65615
   R10        2.06258  -0.00140   0.00000  -0.00353  -0.00353   2.05906
   R11        2.60589   0.01398   0.00000   0.02790   0.02799   2.63389
   R12        2.86958  -0.00078   0.00000  -0.00311  -0.00311   2.86646
   R13        2.80211  -0.02137   0.00000  -0.05555  -0.05547   2.74664
   R14        2.68047   0.00289   0.00000   0.00594   0.00594   2.68642
   R15        2.06645  -0.00010   0.00000  -0.00026  -0.00026   2.06619
   R16        2.06871  -0.00068   0.00000  -0.00173  -0.00173   2.06698
   R17        2.69000  -0.00162   0.00000  -0.00471  -0.00490   2.68510
   R18        2.06008  -0.00050   0.00000  -0.00125  -0.00125   2.05884
   R19        2.05887   0.00070   0.00000   0.00174   0.00174   2.06061
   R20        1.81650   0.00194   0.00000   0.00312   0.00312   1.81962
   R21        1.82000   0.00149   0.00000   0.00241   0.00241   1.82241
   R22        1.85763  -0.01114   0.00000  -0.01939  -0.01939   1.83824
   R23        3.64191  -0.00988   0.00000  -0.13113  -0.13094   3.51097
   R24        1.83723   0.00138   0.00000   0.00230   0.00230   1.83954
   R25        1.82184   0.00020   0.00000   0.00032   0.00032   1.82216
   R26        3.85897  -0.00517   0.00000  -0.08094  -0.08110   3.77787
   R27        1.87083  -0.00305   0.00000  -0.00452  -0.00435   1.86647
   R28        1.86682  -0.00746   0.00000  -0.01223  -0.01226   1.85455
   R29        1.82249   0.01688   0.00000   0.02743   0.02743   1.84992
   R30        3.70386  -0.00908   0.00000  -0.13142  -0.13142   3.57244
   R31        1.81414  -0.00167   0.00000  -0.00268  -0.00268   1.81146
   R32        1.81414  -0.00170   0.00000  -0.00272  -0.00272   1.81142
    A1        1.83483   0.00252   0.00000   0.00970   0.00956   1.84439
    A2        2.02017  -0.00074   0.00000  -0.00523  -0.00514   2.01502
    A3        1.90272  -0.00011   0.00000   0.00224   0.00214   1.90486
    A4        1.90697  -0.00251   0.00000  -0.01079  -0.01074   1.89623
    A5        1.89366   0.00094   0.00000   0.01099   0.01095   1.90461
    A6        1.90145   0.00007   0.00000  -0.00529  -0.00529   1.89616
    A7        1.81016  -0.00126   0.00000  -0.00495  -0.00527   1.80489
    A8        1.85015   0.00232   0.00000   0.02317   0.02300   1.87315
    A9        1.97380   0.00016   0.00000  -0.00178  -0.00168   1.97211
   A10        1.90445   0.00235   0.00000   0.02485   0.02474   1.92919
   A11        1.96180   0.00014   0.00000  -0.00494  -0.00485   1.95694
   A12        1.95464  -0.00332   0.00000  -0.03169  -0.03157   1.92307
   A13        1.73143   0.00410   0.00000   0.02649   0.02674   1.75817
   A14        2.00291  -0.00570   0.00000  -0.03865  -0.03887   1.96404
   A15        1.94637   0.00024   0.00000   0.00220   0.00175   1.94811
   A16        1.94439   0.00178   0.00000   0.01243   0.01274   1.95713
   A17        1.94399  -0.00149   0.00000   0.00178   0.00165   1.94564
   A18        1.89197   0.00117   0.00000  -0.00188  -0.00215   1.88982
   A19        1.84792  -0.00487   0.00000  -0.01924  -0.01959   1.82833
   A20        2.04284   0.00027   0.00000  -0.01214  -0.01234   2.03050
   A21        1.86921   0.00469   0.00000   0.03312   0.03314   1.90235
   A22        1.91325   0.00154   0.00000  -0.00266  -0.00286   1.91039
   A23        1.91066   0.00260   0.00000   0.02276   0.02274   1.93340
   A24        1.87722  -0.00385   0.00000  -0.01803  -0.01774   1.85948
   A25        1.92965  -0.00036   0.00000   0.00912   0.00928   1.93894
   A26        1.88937   0.00367   0.00000   0.01478   0.01477   1.90414
   A27        1.89982  -0.00031   0.00000   0.00002   0.00005   1.89987
   A28        1.89353  -0.00058   0.00000   0.00032   0.00031   1.89383
   A29        1.93774  -0.00190   0.00000  -0.01061  -0.01062   1.92711
   A30        1.93860  -0.00105   0.00000  -0.00256  -0.00261   1.93599
   A31        1.90386   0.00023   0.00000  -0.00158  -0.00161   1.90225
   A32        1.94141   0.00294   0.00000   0.00905   0.00897   1.95038
   A33        1.91967  -0.00203   0.00000  -0.01291  -0.01282   1.90685
   A34        1.88663   0.00082   0.00000   0.01168   0.01170   1.89834
   A35        1.87528  -0.00021   0.00000  -0.00016  -0.00021   1.87507
   A36        1.94066  -0.00245   0.00000  -0.01317  -0.01311   1.92754
   A37        1.90000   0.00086   0.00000   0.00510   0.00511   1.90511
   A38        1.93720  -0.00335   0.00000  -0.01731  -0.01731   1.91989
   A39        1.93078  -0.00485   0.00000  -0.02503  -0.02503   1.90575
   A40        1.91272  -0.00612   0.00000  -0.03398  -0.03404   1.87868
   A41        1.95220   0.00644   0.00000   0.03539   0.03560   1.98780
   A42        2.12018   0.00009   0.00000  -0.00214  -0.00207   2.11811
   A43        1.91585  -0.00238   0.00000  -0.01226  -0.01226   1.90359
   A44        1.90258  -0.00032   0.00000  -0.00850  -0.00847   1.89411
   A45        2.20707  -0.00220   0.00000  -0.01025  -0.01092   2.19614
   A46        1.92981   0.00147   0.00000   0.00011   0.00017   1.92998
   A47        1.78077   0.00662   0.00000   0.04629   0.04625   1.82702
   A48        2.08663  -0.01061   0.00000  -0.08008  -0.07995   2.00667
   A49        1.94097  -0.00024   0.00000  -0.00453  -0.00503   1.93595
   A50        2.27227  -0.00447   0.00000  -0.00638  -0.00656   2.26571
   A51        2.09440   0.01050   0.00000   0.05419   0.05418   2.14857
   A52        2.09440   0.01049   0.00000   0.05412   0.05412   2.14851
   A53        2.09440  -0.02098   0.00000  -0.10831  -0.10832   1.98608
   A54        2.99319  -0.00513   0.00000  -0.05202  -0.05191   2.94128
   A55        3.14159   0.00003   0.00000   0.01959   0.01960   3.16119
   A56        3.13425   0.00165   0.00000   0.00951   0.00962   3.14387
   A57        3.14159   0.00041   0.00000   0.01635   0.01635   3.15795
    D1        0.32215  -0.00113   0.00000  -0.02577  -0.02578   0.29637
    D2       -1.68288  -0.00415   0.00000  -0.06068  -0.06069  -1.74358
    D3        2.45214  -0.00170   0.00000  -0.03603  -0.03603   2.41612
    D4       -1.78356   0.00067   0.00000  -0.01601  -0.01601  -1.79957
    D5        2.49460  -0.00235   0.00000  -0.05092  -0.05092   2.44367
    D6        0.34644   0.00009   0.00000  -0.02627  -0.02626   0.32018
    D7        2.34947   0.00120   0.00000  -0.00698  -0.00699   2.34248
    D8        0.34444  -0.00181   0.00000  -0.04189  -0.04190   0.30253
    D9       -1.80372   0.00063   0.00000  -0.01724  -0.01724  -1.82096
   D10        0.11944   0.00067   0.00000   0.01075   0.01071   0.13015
   D11        2.29814  -0.00012   0.00000   0.00424   0.00419   2.30234
   D12       -1.91409  -0.00092   0.00000  -0.00192  -0.00203  -1.91613
   D13        0.87138   0.00109   0.00000   0.01690   0.01690   0.88827
   D14        2.97944   0.00079   0.00000   0.01287   0.01287   2.99230
   D15       -1.23406   0.00056   0.00000   0.01116   0.01115  -1.22291
   D16       -1.19490   0.00018   0.00000   0.01577   0.01579  -1.17910
   D17        0.91316  -0.00013   0.00000   0.01174   0.01177   0.92493
   D18        2.98286  -0.00036   0.00000   0.01004   0.01004   2.99290
   D19        3.02220   0.00045   0.00000   0.01183   0.01183   3.03403
   D20       -1.15292   0.00015   0.00000   0.00780   0.00780  -1.14512
   D21        0.91677  -0.00008   0.00000   0.00610   0.00608   0.92285
   D22       -0.58667  -0.00090   0.00000   0.02323   0.02346  -0.56322
   D23        1.48691   0.00123   0.00000   0.03731   0.03718   1.52409
   D24       -2.63648  -0.00145   0.00000   0.00634   0.00639  -2.63009
   D25        1.37932   0.00210   0.00000   0.05732   0.05754   1.43686
   D26       -2.83028   0.00422   0.00000   0.07141   0.07126  -2.75902
   D27       -0.67049   0.00154   0.00000   0.04043   0.04047  -0.63002
   D28       -2.72463  -0.00036   0.00000   0.03131   0.03148  -2.69315
   D29       -0.65105   0.00177   0.00000   0.04539   0.04521  -0.60584
   D30        1.50874  -0.00091   0.00000   0.01442   0.01442   1.52316
   D31       -2.83070  -0.00080   0.00000  -0.02678  -0.02650  -2.85720
   D32        1.51291  -0.00151   0.00000  -0.04325  -0.04353   1.46939
   D33       -0.67049  -0.00107   0.00000  -0.03278  -0.03279  -0.70328
   D34        0.68302  -0.00065   0.00000  -0.02543  -0.02547   0.65755
   D35        2.82094  -0.00228   0.00000  -0.05207  -0.05187   2.76907
   D36       -1.35465  -0.00348   0.00000  -0.05786  -0.05766  -1.41232
   D37       -1.43370   0.00290   0.00000  -0.00082  -0.00104  -1.43473
   D38        0.70422   0.00127   0.00000  -0.02746  -0.02743   0.67679
   D39        2.81182   0.00007   0.00000  -0.03325  -0.03323   2.77859
   D40        2.73463   0.00121   0.00000  -0.00829  -0.00840   2.72623
   D41       -1.41064  -0.00043   0.00000  -0.03493  -0.03479  -1.44543
   D42        0.69695  -0.00163   0.00000  -0.04072  -0.04059   0.65637
   D43       -0.60245  -0.00244   0.00000  -0.02800  -0.02786  -0.63031
   D44        1.34732   0.00042   0.00000  -0.01000  -0.01003   1.33729
   D45       -2.79091   0.00050   0.00000  -0.00097  -0.00108  -2.79199
   D46       -0.51811   0.00081   0.00000   0.01423   0.01430  -0.50381
   D47       -2.73652   0.00274   0.00000   0.04361   0.04362  -2.69290
   D48        1.49142   0.00497   0.00000   0.05364   0.05350   1.54492
   D49       -2.92969   0.00283   0.00000   0.01189   0.01181  -2.91788
   D50        1.27793   0.00255   0.00000   0.01471   0.01475   1.29268
   D51       -0.79441   0.00219   0.00000   0.00900   0.00906  -0.78535
   D52       -0.82588  -0.00222   0.00000  -0.02454  -0.02474  -0.85063
   D53       -2.90145  -0.00250   0.00000  -0.02172  -0.02180  -2.92325
   D54        1.30939  -0.00286   0.00000  -0.02743  -0.02749   1.28190
   D55        1.25012  -0.00048   0.00000  -0.00922  -0.00941   1.24071
   D56       -0.82545  -0.00076   0.00000  -0.00640  -0.00647  -0.83191
   D57       -2.89779  -0.00112   0.00000  -0.01211  -0.01216  -2.90995
   D58        0.80020  -0.00115   0.00000  -0.00800  -0.00759   0.79261
   D59       -3.07929  -0.00082   0.00000  -0.01034  -0.01021  -3.08950
   D60       -1.19565   0.00078   0.00000  -0.01425  -0.01456  -1.21021
   D61        1.20804   0.00111   0.00000  -0.01659  -0.01718   1.19086
   D62        3.00987  -0.00028   0.00000  -0.01331  -0.01327   2.99660
   D63       -0.86962   0.00005   0.00000  -0.01564  -0.01588  -0.88551
   D64       -3.14044  -0.00009   0.00000  -0.00270  -0.00273   3.14001
[...]
 39,-0.00063921,0.00001060,-0.00001369,-0.00000434,0.00003858,-0.000026
 10,0.00000306,-0.00000772,0.00000116,-0.00000397,0.00004831,0.00002848
 ,-0.00002381,0.00005391,0.00001145,-0.00001269,-0.00000052,-0.00007627
 ,-0.00001917,0.00002756,-0.00001789,0.00001182,-0.00008594,0.00006157,
 0.00005276,0.00108951,-0.00180162,0.00068109,0.00006067,-0.00005725,-0
 .00006732,-0.00010920,-0.00020470,-0.00004397,-0.00004168,-0.00002265,
 0.00009334,0.06780972,0.07522125,0.04917224,0.00079913,0.00027048,-0.0
 0014839,0.00015590,0.00000473,-0.00022394,0.00036437,0.00070761,0.0009
 3499,0.00143251,-0.00504824,-0.00171695,-0.00162778,0.00071377,0.00112
 490,-0.00002934,-0.00018038,0.00005593,0.00218576,0.00187528,0.0043999
 7,-0.00011601,0.00011216,-0.00000397,-0.00088817,-0.00054497,-0.000057
 18,-0.01778653,-0.00212662,-0.00619928,-0.00106222,0.00035693,-0.00069
 505,-0.02079301,0.03061375,-0.01274028,-0.00001041,0.00002478,0.000005
 55,-0.00006756,0.00004820,-0.00000493,0.00001706,-0.00000834,0.0000179
 1,-0.00009655,-0.00006525,0.00004830,-0.00014093,-0.00004849,0.0000533
 1,-0.00000574,0.00010333,0.00005390,-0.00002163,0.00003267,-0.00002490
 ,0.00019792,-0.00012223,-0.00010491,-0.00119032,0.00221629,-0.00166572
 ,-0.00007379,-0.00026524,-0.00035913,-0.00084276,-0.00051444,-0.001207
 87,-0.00051545,0.00035884,-0.00268806,-0.23135591,-0.17261316,-0.08517
 309,0.58543722,-0.00007807,-0.00000693,0.00002293,0.00038896,-0.000133
 78,0.00021458,0.00011179,0.00083292,-0.00048808,0.00012337,-0.00419770
 ,0.00113570,-0.00000636,0.00079242,0.00022242,0.00001177,0.00002264,-0
 .00000079,-0.00266387,-0.00622301,-0.00587619,0.00001402,-0.00000810,0
 .00000532,-0.00032494,-0.00001230,-0.00003784,-0.00676144,0.00324185,-
 0.00206485,-0.00002477,0.00028284,-0.00011983,0.03734308,-0.03188379,0
 .01626689,-0.00000479,-0.00000392,0.00000021,0.00000896,-0.00000904,-0
 .00000092,-0.00000694,0.00000071,-0.00000509,0.00005432,0.00002022,-0.
 00001884,0.00004673,0.00005946,-0.00005599,0.00000096,0.00000192,0.000
 00718,0.00006012,0.00005300,0.00004520,-0.00007618,0.00000210,-0.00001
 344,-0.00046503,0.00093932,-0.00040611,-0.00000035,0.00047612,0.000478
 25,0.00167230,0.00128578,0.00199778,0.00175537,-0.00100600,0.00436048,
 -0.18046804,-0.23156914,-0.09760377,0.04773520,0.55265671,0.00016641,0
 .00003093,-0.00003817,0.00002256,-0.00000850,-0.00005383,0.00011302,0.
 00004001,0.00022782,-0.00000435,-0.00084961,-0.00032707,-0.00044039,0.
 00017205,0.00020499,-0.00000843,-0.00002978,0.00000441,0.00134595,-0.0
 0038048,0.00187111,-0.00002371,0.00001592,0.00001212,-0.00020114,-0.00
 012447,-0.00001364,-0.00429600,-0.00068509,0.00059150,-0.00018640,0.00
 004734,-0.00010182,-0.01089611,0.01166467,0.00383373,-0.00000319,0.000
 00772,0.00000414,-0.00001624,0.00000957,-0.00000077,0.00000319,-0.0000
 0039,0.00000138,-0.00002839,-0.00001595,0.00001404,-0.00003232,-0.0000
 1250,0.00001407,0.00000432,0.00002857,0.00000456,-0.00000900,-0.000003
 27,-0.00001343,0.00004632,-0.00002689,-0.00002661,-0.00055180,0.000793
 67,-0.00019539,0.00015488,-0.00018670,-0.00009319,-0.00013129,-0.00015
 630,-0.00035913,-0.00107821,0.00137173,-0.00215649,-0.06742852,-0.0735
 7291,-0.05520136,-0.00202879,0.02507288,0.20636134,-0.00062551,-0.0002
 3038,0.00011557,0.00036648,-0.00016953,0.00041087,-0.00021202,0.000621
 99,-0.00134075,-0.00384885,-0.00148890,0.00111120,0.00111970,0.0003821
 6,-0.00051033,0.00003867,0.00016495,-0.00003454,-0.00764048,-0.0042553
 7,-0.01029079,0.00009129,-0.00008815,0.00000601,0.00017556,0.00030455,
 -0.00000684,-0.00232280,0.00053475,-0.00167961,0.00060639,-0.00002318,
 0.00033692,0.01174449,-0.01834943,0.01142366,0.00000610,-0.00002214,-0
 .00000523,0.00006020,-0.00004722,0.00000229,-0.00001533,0.00000675,-0.
 00001359,0.00011922,0.00006539,-0.00005879,0.00015389,0.00010573,-0.00
 010010,-0.00001807,-0.00005603,-0.00002703,0.00009425,0.00004601,0.000
 08597,-0.00021399,0.00008606,0.00004936,-0.00003157,-0.00034229,0.0003
 4812,0.00047313,0.00056950,0.00072843,0.00208061,0.00079011,0.00203531
 ,-0.00086314,0.00215005,0.00387793,0.01810319,-0.02330978,0.00798189,-
 0.09956323,0.07680161,-0.02252397,0.09038835,0.00036733,0.00010675,-0.
 00008848,-0.00050462,0.00021922,-0.00039112,0.00006278,-0.00076861,0.0
 0108563,-0.00147353,0.00352387,-0.00324700,-0.00052513,-0.00078225,0.0
 0016351,-0.00001802,-0.00010552,0.00001913,0.00056534,0.01173800,0.008
 32590,-0.00006918,0.00004726,-0.00000099,0.00027868,-0.00013196,0.0000
 4801,0.00235118,-0.00184166,0.00090067,-0.00040758,-0.00028346,-0.0001
 3194,-0.02184600,0.00176296,-0.01386193,-0.00000203,0.00001769,0.00000
 248,-0.00003782,0.00003225,-0.00000124,0.00001346,0.00000024,0.0000151
 6,-0.00009998,-0.00004929,0.00004813,-0.00011924,-0.00010731,0.0001038
 6,0.00001932,0.00001954,0.00000735,-0.00008599,-0.00008513,-0.00007867
 ,0.00019477,-0.00005146,-0.00002659,0.00062658,-0.00051668,0.00052383,
 -0.00013699,-0.00064856,-0.00069188,-0.00295313,-0.00178741,-0.0031571
 0,-0.00140409,-0.00157796,-0.00499636,0.00204952,-0.03106376,0.0066465
 4,0.06462397,-0.22114493,0.05993886,-0.05222742,0.24154799,-0.00027170
 ,-0.00006927,0.00004454,0.00017195,-0.00006814,0.00019602,-0.00008230,
 0.00032840,-0.00064760,-0.00173564,-0.00065569,0.00067276,0.00054671,0
 .00018806,-0.00027229,0.00002217,0.00006835,-0.00001187,-0.00549912,0.
 00121027,-0.00555564,0.00003192,-0.00004089,-0.00000414,0.00008163,0.0
 0013581,-0.00000580,-0.00090867,0.00006717,-0.00092583,0.00023826,-0.0
 0003163,0.00013771,0.00934121,-0.01013558,-0.01401845,-0.00000016,-0.0
 0001090,-0.00000493,0.00002496,-0.00001893,0.00000057,-0.00000534,0.00
 000704,-0.00000456,0.00005954,0.00003234,-0.00002554,0.00007069,0.0000
 4801,-0.00004756,-0.00000716,-0.00002754,-0.00000700,0.00004062,0.0000
 1752,0.00003560,-0.00009452,0.00004045,0.00002839,0.00004212,-0.000201
 64,0.00007631,0.00018828,0.00031342,0.00013897,0.00061383,0.00007329,0
 .00057082,0.00432872,-0.00391168,0.00585484,0.00550780,-0.00882023,0.0
 0403474,-0.02809149,0.08185727,-0.05627207,0.01482280,-0.04429046,0.06
 040677,-0.00024847,-0.00008857,0.00003956,-0.00001681,-0.00001255,0.00
 008094,-0.00010710,-0.00009116,-0.00030511,-0.00066998,0.00114534,0.00
 028199,0.00050225,-0.00017579,-0.00028735,0.00000493,0.00006085,-0.000
 02153,-0.00099118,-0.00055683,-0.00157341,0.00004026,-0.00003710,0.000
 00951,0.00022532,0.00014065,0.00001954,0.00258434,-0.00026211,0.000903
 60,0.00028452,-0.00009425,0.00018942,0.00554883,-0.00574828,0.00293696
 ,0.00000157,-0.00000664,0.00000033,0.00002174,-0.00001559,0.00000217,-
 0.00000708,0.00000226,-0.00000622,0.00002656,0.00001756,-0.00001368,0.
 00004277,0.00002036,-0.00001908,-0.00000404,-0.00003044,-0.00001419,0.
 00001761,-0.00000442,0.00001408,-0.00006148,0.00003225,0.00002418,0.00
 021724,-0.00047980,0.00020959,-0.00000758,0.00009185,0.00005780,0.0002
 9017,0.00012487,0.00035477,0.00022094,0.00016193,0.00067518,-0.0188705
 6,-0.00367213,0.00583953,-0.14882343,0.01038292,0.07296037,-0.01212216
 ,0.01907359,-0.00361636,0.14683666,0.00006511,0.00003072,-0.00001605,0
 .00003474,-0.00000827,-0.00000801,0.00002616,0.00010470,0.00005036,0.0
 0014842,-0.00062864,-0.00009712,-0.00013636,0.00009138,0.00010483,-0.0
 0000660,-0.00001116,0.00000454,0.00000235,-0.00031152,-0.00003122,-0.0
 0000560,0.00000874,-0.00000045,-0.00008779,-0.00005288,-0.00000929,-0.
 00184050,0.00002673,-0.00091866,-0.00008923,0.00004882,-0.00006635,0.0
 0070273,-0.00131391,0.00157567,-0.00000014,0.00000099,0.00000089,-0.00
 000461,0.00000290,-0.00000040,0.00000224,-0.00000128,0.00000164,-0.000
 00894,-0.00000622,0.00000125,-0.00000892,-0.00000074,0.00000060,-0.000
 01176,0.00001036,0.00000486,0.00000069,0.00000822,0.00000341,0.0000107
 1,-0.00000888,-0.00000962,-0.00009564,0.00018298,-0.00017947,0.0000240
 0,0.00000119,0.00002073,0.00006706,0.00006224,0.00005196,-0.00009349,0
 .00010915,-0.00006233,-0.01659222,0.00969687,0.01702242,0.01803966,-0.
 07228246,-0.01691684,0.01907782,0.00098533,-0.01658102,-0.01138718,0.0
 7860861,0.00016881,0.00006352,-0.00002578,0.00002751,0.00000158,-0.000
 04573,0.00006068,0.00011198,0.00018874,0.00046691,-0.00086015,-0.00022
 673,-0.00031624,0.00013096,0.00019561,-0.00000605,-0.00003883,0.000013
 38,0.00053803,0.00031822,0.00104790,-0.00002203,0.00002482,-0.00000850
 ,-0.00017474,-0.00011068,-0.00001259,-0.00252803,-0.00029390,-0.001034
 10,-0.00019761,0.00006988,-0.00014324,-0.00349342,0.00466065,-0.002383
 73,-0.00000260,0.00000379,0.00000024,-0.00001317,0.00000866,-0.0000008
 4,0.00000366,-0.00000202,0.00000416,-0.00001831,-0.00001318,0.00000763
 ,-0.00002787,-0.00001025,0.00000969,-0.00000093,0.00002220,0.00001187,
 -0.00001035,0.00000485,-0.00000951,0.00003662,-0.00002304,-0.00001409,
 -0.00021789,0.00031905,-0.00029139,0.00000862,-0.00006158,-0.00007000,
 -0.00017110,-0.00008107,-0.00023615,-0.00006521,-0.00009536,-0.0003531
 7,-0.00694922,0.00892768,0.00680461,0.09791603,-0.01801554,-0.08941461
 ,-0.00661023,-0.01151304,0.00794429,-0.05291906,0.01278512,0.08790688,
 0.00011623,0.00004306,-0.00001844,0.00001421,0.00000308,-0.00003368,0.
 00005356,0.00005041,0.00013337,0.00030489,-0.00053235,-0.00016828,-0.0
 0024263,0.00008591,0.00014545,-0.00000290,-0.00002872,0.00000964,0.000
 37978,0.00024956,0.00066104,-0.00002025,0.00001884,-0.00000319,-0.0001
 1703,-0.00006440,-0.00000882,-0.00132885,0.00001170,-0.00048478,-0.000
 14343,0.00005200,-0.00009145,-0.00233581,0.00261749,-0.00139618,-0.000
 00090,0.00000320,0.00000032,-0.00001002,0.00000724,-0.00000078,0.00000
 364,-0.00000144,0.00000266,-0.00001197,-0.00000926,0.00000674,-0.00002
 105,-0.00000828,0.00000788,0.00000583,0.00001375,0.00000669,-0.0000055
 4,0.00000420,-0.00000251,0.00003000,-0.00001782,-0.00001380,-0.0001027
 7,0.00021364,-0.00014152,0.00001689,-0.00004993,-0.00004035,-0.0001207
 2,-0.00005588,-0.00016422,-0.00007339,-0.00007095,-0.00026912,0.002314
 69,0.00395662,0.00245119,-0.05904620,0.01528384,0.03219412,0.00164271,
 -0.00803190,0.00417637,0.01972146,-0.01570541,-0.02400352,0.30651925,-
 0.00002369,-0.00001004,0.00000444,-0.00000053,-0.00000690,0.00000682,-
 0.00000908,-0.00002024,-0.00002250,-0.00006044,0.00011613,0.00004071,0
 .00004327,-0.00001090,-0.00002807,0.00000178,0.00000272,-0.00000056,-0
 .00006360,-0.00001616,-0.00010622,0.00000302,0.00000056,-0.00000019,0.
 00001860,0.00002006,0.00000256,0.00035121,0.00003250,0.00012663,0.0000
 2689,-0.00000260,0.00001650,0.00029661,-0.00032024,0.00013811,0.000000
 19,-0.00000050,0.00000041,0.00000216,-0.00000113,-0.00000004,-0.000001
 27,-0.00000074,-0.00000116,0.00000284,0.00000190,-0.00000198,0.0000031
 9,0.00000187,-0.00000160,0.00000403,-0.00000324,-0.00000153,0.00000113
 ,-0.00000170,0.00000130,-0.00000573,0.00000033,0.00000186,0.00003245,-
 0.00005295,0.00004718,-0.00001161,0.00000293,0.00000921,0.00001263,0.0
 0000484,0.00002155,0.00001146,0.00000221,0.00003851,0.00053136,-0.0013
 3463,-0.00147751,0.01497564,0.00662158,-0.00720791,-0.00098055,0.00105
 644,0.00041501,-0.00995880,-0.01225366,0.00427519,-0.17609437,0.324930
 18,-0.00006241,-0.00002095,0.00000696,-0.00000736,0.00000233,0.0000153
 7,-0.00002393,-0.00003755,-0.00007402,-0.00014102,0.00029968,0.0000748
 7,0.00012076,-0.00004652,-0.00005824,-0.00000067,0.00001530,-0.0000082
 7,-0.00019009,-0.00014864,-0.00038320,0.00000973,-0.00001066,0.0000073
 9,0.00005961,0.00003750,0.00000829,0.00077369,0.00002208,0.00035179,0.
 00007040,-0.00002483,0.00005640,0.00128647,-0.00148960,0.00081044,0.00
 000070,-0.00000072,0.00000070,0.00000507,-0.00000319,0.00000095,-0.000
 00177,0.00000047,-0.00000234,0.00000481,0.00000386,-0.00000188,0.00001
 072,0.00000381,-0.00000326,0.00000134,-0.00000679,-0.00000630,0.000004
 46,-0.00000052,0.00000516,-0.00001191,0.00000754,0.00000329,0.00006804
 ,-0.00012242,0.00007552,0.00001770,0.00002334,0.00001705,0.00006701,0.
 00003311,0.00009018,0.00003043,0.00004071,0.00013468,-0.00006746,-0.00
 280291,-0.00187063,0.03541220,-0.00719299,-0.00644880,0.00003173,0.004
 41896,-0.00239372,-0.02462671,0.00713622,-0.01369105,0.21119182,0.1062
 6015,0.58667823,-0.00000377,-0.00000072,0.00000016,-0.00000157,0.00000
 180,0.00000051,-0.00000354,0.00000318,-0.00000216,-0.00000858,0.000011
 10,0.00000130,0.00000787,-0.00000304,-0.00000375,-0.00000039,0.0000014
 5,-0.00000112,-0.00000700,-0.00000639,-0.00000656,0.00000177,-0.000001
 66,0.00000049,0.00000490,-0.00000117,-0.00000044,0.00001273,-0.0000093
 8,0.00000152,0.00000344,-0.00000392,0.00000220,0.00003039,-0.00004513,
 0.00002487,-0.00000004,0.00000004,0.00000015,0.00000007,-0.00000011,0.
 00000014,-0.00000045,0.00000017,0.,-0.00000035,-0.00000007,0.00000032,
 0.00000084,0.00000005,0.00000006,-0.00000242,-0.00000019,-0.00000043,-
 0.00000069,-0.00000056,-0.00000084,-0.00000149,0.00000139,0.00000061,-
 0.00000420,0.00000231,-0.00000200,-0.00000358,0.00000255,-0.00000069,0
 .00000297,0.00000047,0.00000046,-0.00000205,0.00000331,0.00000318,-0.0
 0001341,-0.00001739,0.00004822,-0.00082441,-0.00056652,0.00177729,0.00
 011406,0.00016541,-0.00010638,-0.00419476,0.00394668,-0.00535078,-0.23
 277882,0.16332044,-0.19496808,0.24044686,0.00000058,0.00000011,0.00000
 116,-0.00000136,0.00000300,-0.00000080,0.00000014,0.00000034,-0.000000
 04,-0.00000271,0.00000615,-0.00000274,-0.00000078,-0.00000284,-0.00000
 169,-0.00000010,0.00000150,-0.00000050,0.00000663,0.00000168,0.0000063
 2,0.00000012,-0.00000156,0.00000007,0.00000123,-0.00000272,-0.00000056
 ,0.00000121,-0.00001068,0.00000182,0.00000043,-0.00000294,0.00000051,-
 0.00001455,0.00001074,-0.00001348,0.00000015,-0.00000025,-0.00000034,-
 0.00000016,-0.00000002,0.00000011,0.00000028,0.00000036,0.00000015,-0.
 00000009,0.00000018,0.00000043,0.00000017,-0.00000042,0.00000023,-0.00
 000104,0.00000005,0.00000002,-0.00000037,0.00000053,-0.00000018,0.0000
 0006,0.00000089,0.00000042,-0.00000294,0.00000485,-0.00000111,-0.00000
 058,-0.00000257,-0.00000022,-0.00000089,-0.00000084,-0.00000079,0.0000
 0129,0.00000006,0.00000100,0.00008861,0.00002937,-0.00012480,-0.000389
 20,0.00054356,0.00065347,-0.00004556,-0.00001141,0.00004562,0.00029029
 ,-0.00151327,-0.00055185,0.18703546,-0.14847536,0.14078104,-0.17033418
 ,0.13925419,-0.00000857,-0.00000346,0.00000307,-0.00000068,-0.00000119
 ,0.00000346,-0.00000407,-0.00000352,-0.00001059,-0.00003306,0.00004176
 ,0.00001753,0.00001890,-0.00000656,-0.00001707,0.00000096,0.00000189,0
 .00000042,-0.00002843,-0.00001439,-0.00003945,0.00000072,-0.00000086,-
 0.00000189,0.00000860,0.00000564,-0.00000086,0.00011050,0.00000047,0.0
 0002778,0.00001178,-0.00000417,0.00000525,0.00016709,-0.00018104,0.000
 08569,0.00000018,-0.00000055,-0.00000026,0.00000077,-0.00000073,0.,-0.
 00000012,0.00000030,0.00000013,0.00000181,0.00000086,-0.00000085,0.000
 00140,0.00000063,-0.00000083,-0.00000079,-0.00000140,0.00000034,-0.000
 00026,-0.00000100,-0.00000041,-0.00000307,0.00000206,0.00000215,0.0000
 0905,-0.00001844,0.00001776,-0.00000274,0.00000138,-0.00000094,0.00000
 791,0.00000317,0.00001080,0.00000739,0.00000231,0.00002608,-0.00021366
 ,-0.00026879,-0.00019658,0.00488896,-0.00041225,-0.00361551,-0.0003608
 9,0.00058289,-0.00012286,-0.00493968,-0.00149006,0.00865120,-0.1725751
 6,0.10556383,-0.19371050,0.19866377,-0.12503021,0.20885614,0.00000312,
 0.00000155,-0.00000209,-0.00000084,0.00000064,-0.00000187,-0.00000134,
 0.00001240,0.00000721,-0.00000073,-0.00002009,-0.00000367,0.00000144,0
 .00000012,-0.00000068,-0.00000071,0.,0.00000078,0.00001593,0.00002119,
 0.00005801,0.00000066,-0.00000104,-0.00000109,0.00000090,-0.00000686,-
 0.00000169,-0.00010468,-0.00002818,-0.00007093,-0.00000138,-0.00000403
 ,-0.00000578,-0.00014324,0.00016062,-0.00008881,0.00000006,-0.00000009
 ,-0.00000033,-0.00000011,-0.00000002,-0.00000025,-0.00000001,0.0000004
 0,0.00000032,-0.00000053,-0.00000014,-0.00000025,0.00000010,-0.0000005
 4,0.00000009,-0.00000528,0.00000072,0.00000121,-0.00000200,-0.00000166
 ,-0.00000301,-0.00000077,0.00000157,0.00000151,-0.00001458,0.00001333,
 -0.00000806,0.00000022,0.00000464,-0.00001228,-0.00000438,-0.00000600,
 -0.00001386,-0.00000302,-0.00000166,-0.00001387,-0.00025352,0.00045760
 ,0.00049324,-0.00570847,-0.00034801,0.00109982,0.00009888,-0.00044931,
 0.00010925,0.00953748,0.00392603,0.00387152,-0.03476087,0.00757081,-0.
 02906528,-0.00277441,-0.01663212,-0.02572860,0.03412211,0.00000239,0.0
 0000155,-0.00000038,-0.00000228,0.00000435,-0.00000163,-0.00000036,0.0
 0000121,0.00000328,0.00000654,0.00001166,-0.00000876,-0.00000258,-0.00
 000556,0.00000159,-0.00000070,0.00000080,-0.00000059,0.00001362,-0.000
 00057,0.00000574,-0.00000040,-0.00000181,0.00000090,0.00000213,-0.0000
 0453,-0.00000078,-0.00000295,-0.00001978,0.00000670,-0.00000081,-0.000
 00372,0.00000092,-0.00002981,0.00003252,-0.00001906,0.00000017,-0.0000
 0013,-0.00000011,-0.00000021,0.00000002,0.00000016,0.00000040,0.000000
 48,0.00000005,-0.00000072,-0.00000034,0.00000063,-0.00000010,-0.000000
 68,0.00000044,-0.00000216,0.00000044,0.00000037,-0.00000053,0.00000073
 ,-0.00000078,0.00000124,0.00000097,-0.00000008,-0.00000470,0.00000498,
 -0.00000289,0.00000540,0.00000130,0.00000060,-0.00000167,-0.00000076,-
 0.00000127,-0.00000068,-0.00000044,-0.00000497,0.00002115,0.00003563,-
 0.00008055,-0.00088673,0.00064792,0.00033020,-0.00007152,-0.00010018,0
 .00001558,0.00107694,-0.00158705,-0.00005763,-0.00897927,-0.17028328,-
 0.24717784,0.00353004,0.01016730,0.02123143,0.00532816,0.16109696,0.00
 000496,0.00000135,0.00000024,0.00000065,-0.00000190,-0.00000154,0.0000
 0368,0.00000183,0.00000806,0.00001147,-0.00002590,0.00000051,-0.000008
 59,0.00000437,0.00000111,0.00000050,-0.00000173,0.00000190,0.00001796,
 0.00001843,0.00003927,-0.00000094,0.00000146,-0.00000247,-0.00000409,-
 0.00000144,-0.00000220,-0.00005007,0.00000843,-0.00003374,-0.00000486,
 0.00000214,-0.00000663,-0.00010814,0.00010744,-0.00007004,-0.00000003,
 -0.00000022,-0.00000050,-0.00000029,0.00000043,-0.00000014,0.00000033,
 -0.00000002,0.00000051,0.00000006,-0.00000001,-0.00000041,-0.00000098,
 -0.00000014,0.00000021,-0.00000036,0.00000074,0.00000131,-0.00000124,-
 0.00000062,-0.00000026,0.00000013,-0.00000013,0.00000076,-0.00000190,0
 .00000725,0.,0.00000532,-0.00000594,-0.00000382,-0.00000599,-0.0000027
 1,-0.00000759,-0.00000180,-0.00000303,-0.00000972,0.00025878,0.0001212
 7,0.00001479,-0.00177803,0.00062542,0.00118671,0.00019466,-0.00035412,
 0.00017755,0.00374286,-0.00237763,-0.00482499,-0.05157146,-0.20812069,
 -0.36968507,-0.00008203,-0.01576304,-0.01998923,0.04937944,0.22575872,
 0.39320544\\-0.00001822,-0.00001347,0.00001506,0.00001671,-0.00001081,
 -0.00001182,0.00000866,-0.00001740,-0.00000852,-0.00002317,0.00002991,
 0.00003309,0.00002067,-0.00000851,-0.00001732,0.00001001,-0.00001481,0
 .00001781,0.00002090,-0.00001210,0.00001409,-0.00000956,0.00000330,0.0
 0001743,-0.00003283,0.00001491,-0.00000441,-0.00001787,0.00001652,-0.0
 0004369,0.00000129,0.00000841,0.00000098,-0.00000558,0.00000073,0.0000
 3407,0.00000255,-0.00000513,0.00001018,0.00000163,0.00000311,0.0000030
 4,-0.00000185,0.00001021,0.00001316,0.00000306,-0.00001033,-0.00000383
 ,-0.00000504,0.00000783,0.00000149,0.00000542,0.00000497,-0.00001553,0
 .00000048,0.00001237,-0.00000685,-0.00000497,0.00002586,0.00000454,0.0
 0001785,-0.00000487,0.00000142,0.00000010,0.00000546,0.00000204,-0.000
 00039,0.00000326,0.00000877,-0.00000414,0.00000207,-0.00000452,-0.0000
 0316,-0.00005055,-0.00002217,0.00001172,0.00002868,0.00003211,0.000030
 21,-0.00000740,-0.00002142,-0.00002465,-0.00002302,-0.00002876,0.00003
 382,0.00000721,-0.00000989,-0.00000012,-0.00000080,-0.00001714,-0.0000
 3352,-0.00000558,0.00000658\\\@


 YOU KNOW YOU'RE A TEACHER WHEN YOU SAY 2, WRITE 3, AND MEAN 4.
 -- RONALD ANSTROM, HIGH SCHOOL TEACHER, UNDERWOOD, N.D. 1974
 Job cpu time:       0 days  7 hours  1 minutes 16.6 seconds.
 Elapsed time:       0 days  0 hours 17 minutes 35.0 seconds.
 File lengths (MBytes):  RWF=    602 Int=      0 D2E=      0 Chk=     24 Scr=      1
 Normal termination of Gaussian 16 at Mon Dec 10 18:25:28 2018.
